ITEM: TIMESTEP
680
ITEM: NUMBER OF ATOMS
1000
ITEM: BOX BOUNDS pp pp pp
0.0000000000000000e+00 6.2996052494743662e+00
0.0000000000000000e+00 6.2996052494743662e+00
0.0000000000000000e+00 2.5198420997897465e+01
ITEM: ATOMS id type xs ys zs
1 1 0.0865171 0.99333 0.0023258
2 1 0.224692 0.962722 0.0264723
6 1 0.901858 0.173874 0.994624
7 1 0.252344 0.260361 0.0228077
26 1 0.0242169 0.996383 0.0939835
27 1 0.195251 0.944947 0.0958353
31 1 0.95152 0.283445 0.093805
32 1 0.252122 0.138674 0.0553377
501 2 0.134635 0.137577 0.0284513
3 1 0.460477 0.030834 0.00299066
8 1 0.452904 0.14411 0.0339687
28 1 0.461378 0.045155 0.0590318
33 1 0.398115 0.268136 0.0584655
502 2 0.3167 0.117158 0.0128514
4 1 0.60456 0.993692 0.00424191
9 1 0.565074 0.1696 0.00516839
29 1 0.652915 0.0389558 0.0650284
34 1 0.711335 0.204674 0.079325
503 2 0.611915 0.164684 0.0434954
504 2 0.764498 0.0470176 0.0160798
5 1 0.92401 0.0143975 0.0152092
10 1 0.751157 0.237367 0.00332729
30 1 0.803627 0.0257263 0.0653802
35 1 0.860721 0.184738 0.0700146
505 2 0.0123007 0.111816 0.0534793
11 1 0.0285879 0.370703 0.0415919
12 1 0.23714 0.405987 0.0050847
36 1 0.975625 0.469678 0.0694176
37 1 0.135862 0.432063 0.0774829
506 2 0.2029 0.2921 0.0607337
13 1 0.402029 0.410584 0.0266916
38 1 0.356493 0.434962 0.0831418
507 2 0.281876 0.449152 0.05065
14 1 0.536728 0.306412 0.0187241
39 1 0.646717 0.407403 0.0854051
508 2 0.584469 0.321802 0.0584219
509 2 0.748998 0.240699 0.0417785
15 1 0.862124 0.498833 0.00612841
40 1 0.805355 0.361758 0.060754
510 2 0.864186 0.333371 0.0219727
16 1 0.0366 0.55382 0.00818578
17 1 0.204417 0.617632 0.00785881
41 1 0.061837 0.609045 0.0745829
42 1 0.213518 0.601386 0.0695125
511 2 0.113336 0.497897 0.037088
516 2 0.121252 0.673812 0.0369609
18 1 0.479205 0.714674 0.983854
43 1 0.423853 0.608188 0.0877517
512 2 0.391439 0.560622 0.050737
517 2 0.324921 0.636785 0.021863
19 1 0.608789 0.465638 0.00781137
44 1 0.582767 0.641181 0.0856648
513 2 0.53051 0.490475 0.056784
514 2 0.713082 0.386258 0.0288127
518 2 0.540097 0.614865 0.0303898
519 2 0.666268 0.55774 0.0526157
20 1 0.776965 0.660605 0.00723684
45 1 0.785574 0.667641 0.0439141
515 2 0.845583 0.501114 0.0462994
520 2 0.917956 0.740719 0.0305547
21 1 0.0363829 0.875317 0.0344579
22 1 0.225712 0.819759 0.0137098
46 1 0.104318 0.837722 0.0736645
47 1 0.266119 0.824819 0.0616222
521 2 0.129611 0.00118423 0.0621174
23 1 0.382603 0.833212 0.0150003
48 1 0.386687 0.697938 0.0558808
522 2 0.295444 0.985394 0.0610983
24 1 0.636088 0.629857 0.99027
49 1 0.639945 0.740269 0.04217
523 2 0.470479 0.906839 0.0460746
524 2 0.675924 0.919437 0.032153
25 1 0.791198 0.886659 0.00484401
50 1 0.761473 0.827419 0.0580907
525 2 0.951398 0.96867 0.0532133
51 1 0.040786 0.0912137 0.131694
52 1 0.177868 0.0615074 0.121683
56 1 0.0311443 0.248636 0.135444
57 1 0.226296 0.221277 0.123631
526 2 0.101746 0.196377 0.0871806
53 1 0.511363 0.0633877 0.122724
58 1 0.399141 0.186554 0.115604
527 2 0.351171 0.0645189 0.0896163
54 1 0.624593 0.95196 0.125757
59 1 0.682925 0.178867 0.120239
528 2 0.534364 0.120467 0.0849441
529 2 0.700204 0.0321986 0.103009
55 1 0.821544 0.960941 0.116625
60 1 0.770096 0.0654252 0.140603
530 2 0.875823 0.107793 0.104726
61 1 0.984237 0.396179 0.138451
62 1 0.154627 0.382368 0.141037
531 2 0.152379 0.332051 0.105291
63 1 0.314251 0.372842 0.124991
532 2 0.287464 0.207973 0.0869797
64 1 0.652324 0.455736 0.126967
533 2 0.546017 0.31665 0.104751
534 2 0.796815 0.329267 0.102911
65 1 0.811257 0.421044 0.136447
535 2 0.870717 0.197998 0.13422
66 1 0.0764591 0.571043 0.140033
67 1 0.205069 0.513926 0.157426
536 2 0.16535 0.533977 0.11156
541 2 0.0983127 0.740255 0.10337
68 1 0.485956 0.642583 0.134294
537 2 0.327998 0.551761 0.113227
542 2 0.294156 0.714216 0.0925457
69 1 0.647645 0.635053 0.126473
538 2 0.481796 0.495174 0.111764
539 2 0.769731 0.551985 0.0895986
543 2 0.467903 0.810001 0.079293
544 2 0.81591 0.708508 0.0824436
70 1 0.903663 0.607349 0.102951
540 2 0.911421 0.440661 0.102073
545 2 0.969447 0.73977 0.0781288
71 1 0.0883368 0.781037 0.143375
72 1 0.258511 0.835457 0.117337
546 2 0.0127547 0.853791 0.117644
73 1 0.441918 0.792658 0.116554
547 2 0.355313 0.898377 0.0949856
74 1 0.643332 0.801246 0.127332
548 2 0.502652 0.96764 0.0872256
549 2 0.724576 0.869181 0.0937709
75 1 0.850188 0.817373 0.123988
550 2 0.894626 0.870424 0.0852088
76 1 0.987356 0.0437603 0.189916
77 1 0.258183 0.00399962 0.169724
81 1 0.0727338 0.186734 0.199356
82 1 0.250801 0.169424 0.186348
551 2 0.137294 0.119505 0.164511
78 1 0.404503 0.0147973 0.179646
83 1 0.417155 0.204983 0.188339
552 2 0.335583 0.126496 0.155812
79 1 0.575752 0.0158091 0.173977
84 1 0.580503 0.2404 0.187085
553 2 0.51774 0.171022 0.15448
554 2 0.680148 0.144479 0.172234
80 1 0.803751 0.0204754 0.185737
85 1 0.796804 0.182196 0.19861
555 2 0.949728 0.192758 0.174259
86 1 0.961903 0.363948 0.180336
87 1 0.216657 0.422906 0.18593
556 2 0.119283 0.281335 0.16933
88 1 0.373742 0.404843 0.190534
557 2 0.326737 0.291532 0.163185
89 1 0.630745 0.384278 0.177633
558 2 0.499668 0.374251 0.142733
559 2 0.677333 0.310875 0.142993
90 1 0.819789 0.423146 0.187137
560 2 0.824297 0.280509 0.17054
91 1 0.0265423 0.654473 0.179074
92 1 0.31237 0.564515 0.191918
561 2 0.0305593 0.49862 0.174121
566 2 0.201636 0.669537 0.166273
93 1 0.46175 0.6264 0.17771
562 2 0.40417 0.511576 0.151857
567 2 0.327963 0.663028 0.132938
94 1 0.710364 0.55724 0.165062
563 2 0.563005 0.513042 0.155006
564 2 0.790827 0.56211 0.130156
568 2 0.596239 0.703646 0.162047
569 2 0.776699 0.725972 0.178205
95 1 0.829785 0.612629 0.199542
565 2 0.886123 0.556467 0.162249
570 2 0.962628 0.701625 0.133885
96 1 0.0916035 0.834429 0.181919
97 1 0.246581 0.838031 0.176886
571 2 0.101519 0.939101 0.147702
98 1 0.38681 0.780307 0.16344
572 2 0.341983 0.973242 0.128902
99 1 0.657138 0.848721 0.182789
573 2 0.485115 0.890645 0.156534
574 2 0.774492 0.902469 0.158611
100 1 0.934584 0.782503 0.171574
575 2 0.931644 0.920761 0.144548
101 1 0.0528168 0.00717707 0.227082
102 1 0.277199 0.979259 0.239365
106 1 0.0352825 0.172997 0.243966
107 1 0.23968 0.205475 0.241269
576 2 0.190353 0.0229062 0.203744
601 2 0.180176 0.0712633 0.258274
103 1 0.446307 0.0115725 0.237771
108 1 0.396919 0.194462 0.241865
577 2 0.333059 0.075728 0.209949
602 2 0.341037 0.0864543 0.266368
104 1 0.615988 0.985915 0.24102
109 1 0.647067 0.229174 0.227523
578 2 0.506984 0.113352 0.215565
579 2 0.658121 0.0741841 0.206798
603 2 0.507756 0.119257 0.269114
604 2 0.736189 0.143979 0.259264
105 1 0.807459 0.996602 0.255507
110 1 0.855377 0.244631 0.241228
580 2 0.844367 0.0706105 0.223179
605 2 0.902437 0.0994498 0.271908
111 1 0.97764 0.383534 0.252286
112 1 0.263282 0.442257 0.226932
581 2 0.10144 0.305385 0.227839
606 2 0.115227 0.298158 0.269823
113 1 0.412649 0.427456 0.23242
582 2 0.295181 0.283631 0.210678
607 2 0.266283 0.331864 0.25656
114 1 0.578378 0.384461 0.231981
583 2 0.474936 0.303774 0.21395
584 2 0.760943 0.3151 0.21084
608 2 0.522225 0.290584 0.259852
609 2 0.708067 0.303977 0.262233
115 1 0.852387 0.432861 0.23699
585 2 0.957013 0.286686 0.218686
610 2 0.941176 0.255535 0.269744
116 1 0.141388 0.584396 0.196001
117 1 0.246544 0.60581 0.23463
586 2 0.0962466 0.460251 0.219975
591 2 0.138644 0.727018 0.21469
611 2 0.154648 0.457267 0.260029
616 2 0.0828061 0.740517 0.254013
118 1 0.357239 0.666261 0.255823
587 2 0.446674 0.620313 0.227654
592 2 0.30185 0.734913 0.208528
612 2 0.301239 0.519177 0.266846
617 2 0.206941 0.6508 0.272024
119 1 0.5827 0.551496 0.240964
588 2 0.504547 0.490184 0.200004
589 2 0.687178 0.489796 0.21084
593 2 0.484807 0.759309 0.209328
594 2 0.632752 0.695091 0.212367
613 2 0.488024 0.493293 0.262747
614 2 0.732616 0.46511 0.263638
618 2 0.513194 0.687818 0.262979
619 2 0.739081 0.714234 0.262794
120 1 0.74543 0.603919 0.23503
590 2 0.961909 0.485919 0.210807
595 2 0.970034 0.660947 0.218334
615 2 0.945686 0.532483 0.259736
620 2 0.895728 0.720446 0.253452
121 1 0.981712 0.811093 0.226624
122 1 0.241585 0.789236 0.250867
596 2 0.178668 0.875775 0.216651
621 2 0.128199 0.925016 0.264858
123 1 0.446967 0.827501 0.245868
597 2 0.359123 0.882823 0.204093
622 2 0.326085 0.896767 0.275655
124 1 0.592094 0.821761 0.238315
598 2 0.500294 0.928046 0.204895
599 2 0.721205 0.895176 0.220665
623 2 0.507955 0.918669 0.274166
624 2 0.695111 0.858894 0.266343
125 1 0.81026 0.772005 0.222369
600 2 0.909753 0.902885 0.19876
625 2 0.933429 0.881646 0.258546
126 1 0.0198614 0.0172732 0.282948
127 1 0.21739 0.00571709 0.290546
131 1 0.0471027 0.177706 0.291539
132 1 0.209864 0.197553 0.292847
626 2 0.133006 0.0696181 0.317032
128 1 0.398893 0.99415 0.298119
133 1 0.384874 0.216572 0.283855
627 2 0.304874 0.107539 0.315735
129 1 0.646351 0.02673 0.282623
134 1 0.631607 0.2148 0.285748
628 2 0.538267 0.0734213 0.315422
629 2 0.714135 0.115202 0.313104
130 1 0.799481 0.991868 0.295345
135 1 0.809619 0.191587 0.291285
630 2 0.916011 0.121605 0.316274
136 1 0.00648559 0.40115 0.291805
137 1 0.236254 0.380454 0.292723
631 2 0.112169 0.297901 0.31502
138 1 0.40536 0.392193 0.291463
632 2 0.318757 0.292281 0.315331
139 1 0.588666 0.406434 0.280424
633 2 0.513818 0.297623 0.308127
634 2 0.744313 0.299008 0.308058
140 1 0.828742 0.369456 0.282216
635 2 0.921579 0.297722 0.310656
141 1 0.0580257 0.55203 0.284335
142 1 0.215011 0.541278 0.300609
636 2 0.100716 0.536484 0.323569
641 2 0.122554 0.680211 0.306376
143 1 0.377684 0.620021 0.290625
637 2 0.340294 0.480791 0.318617
642 2 0.269793 0.670324 0.323613
144 1 0.666068 0.570812 0.283067
638 2 0.535618 0.522408 0.308681
639 2 0.757684 0.48549 0.309968
643 2 0.531915 0.665446 0.305789
644 2 0.71548 0.702174 0.308204
145 1 0.841058 0.615779 0.284778
640 2 0.933999 0.514907 0.307247
645 2 0.95217 0.667455 0.31596
146 1 0.997075 0.784673 0.289493
147 1 0.212506 0.803092 0.295089
646 2 0.0998747 0.907248 0.312715
148 1 0.423402 0.773998 0.290266
647 2 0.332289 0.885587 0.319115
149 1 0.586972 0.785398 0.289259
648 2 0.518301 0.905605 0.313149
649 2 0.711153 0.886599 0.310716
150 1 0.842748 0.782128 0.291647
650 2 0.929795 0.920189 0.312668
151 1 0.00518929 0.0172365 0.342759
152 1 0.221567 0.964864 0.346906
156 1 0.0247125 0.174884 0.341377
157 1 0.219236 0.202596 0.338391
651 2 0.13475 0.0805171 0.361424
153 1 0.409466 0.00352727 0.337728
158 1 0.38127 0.204922 0.339047
652 2 0.301884 0.103621 0.359543
154 1 0.645106 0.00402566 0.339664
159 1 0.622124 0.205641 0.329711
653 2 0.496204 0.130447 0.352331
654 2 0.692281 0.135232 0.362843
155 1 0.824004 0.0100588 0.333547
160 1 0.781592 0.2256 0.338435
655 2 0.88795 0.110404 0.357519
161 1 0.000398787 0.401402 0.33351
162 1 0.197039 0.39991 0.333113
656 2 0.102894 0.311066 0.371639
163 1 0.48301 0.423818 0.336009
657 2 0.327408 0.324335 0.354081
164 1 0.639912 0.409589 0.322245
658 2 0.481651 0.296546 0.356902
659 2 0.681592 0.324746 0.359954
165 1 0.799776 0.381151 0.341922
660 2 0.929882 0.303119 0.362622
166 1 0.994277 0.606893 0.35396
167 1 0.147133 0.648149 0.349272
661 2 0.128186 0.504895 0.365335
666 2 0.0653117 0.759849 0.370674
168 1 0.412331 0.606327 0.339097
662 2 0.269833 0.527022 0.355309
667 2 0.315476 0.708844 0.362063
169 1 0.640912 0.613313 0.332371
663 2 0.54777 0.55763 0.359346
664 2 0.700889 0.500521 0.359943
668 2 0.56534 0.722121 0.3555
669 2 0.71606 0.670598 0.365339
170 1 0.789868 0.58988 0.334722
665 2 0.955398 0.466352 0.3693
670 2 0.885238 0.708303 0.355661
171 1 0.0189785 0.771717 0.333156
172 1 0.214317 0.793025 0.341899
671 2 0.0827527 0.9 0.360015
173 1 0.424338 0.780097 0.331601
672 2 0.339884 0.875243 0.363018
174 1 0.670124 0.795855 0.336211
673 2 0.516121 0.903825 0.34926
674 2 0.739994 0.902991 0.362441
175 1 0.864002 0.824978 0.336943
675 2 0.888082 0.947177 0.369265
176 1 0.0379337 0.0274438 0.390846
177 1 0.219186 0.982198 0.388438
181 1 0.0256588 0.179262 0.382005
182 1 0.264317 0.212069 0.38667
201 1 0.0120988 0.990011 0.432167
202 1 0.228179 0.987408 0.429199
206 1 0.0113851 0.185672 0.431788
207 1 0.246867 0.20106 0.429094
676 2 0.12956 0.0994868 0.413748
178 1 0.452342 0.0196303 0.378599
183 1 0.437831 0.191594 0.383906
203 1 0.40361 0.982547 0.429828
208 1 0.38455 0.244639 0.435534
677 2 0.302237 0.0816783 0.405107
179 1 0.62911 0.00768708 0.382404
184 1 0.589216 0.240718 0.385471
204 1 0.624273 0.0196699 0.420971
209 1 0.570415 0.242101 0.429363
678 2 0.519125 0.112115 0.410521
679 2 0.677858 0.164276 0.409813
180 1 0.771409 0.0600493 0.391956
185 1 0.792987 0.236181 0.386428
205 1 0.766061 0.04055 0.435618
210 1 0.820089 0.190805 0.428225
680 2 0.922059 0.107395 0.407366
186 1 0.0482723 0.406345 0.401904
187 1 0.237388 0.408121 0.375937
211 1 0.00531384 0.466798 0.433782
212 1 0.196348 0.411238 0.428557
681 2 0.120761 0.264136 0.412167
188 1 0.399271 0.486368 0.371026
213 1 0.386283 0.414196 0.429137
682 2 0.333247 0.342855 0.396949
189 1 0.567253 0.396603 0.380558
214 1 0.618332 0.422783 0.424929
683 2 0.47056 0.308813 0.403957
684 2 0.702164 0.314172 0.414814
190 1 0.82651 0.396493 0.381454
215 1 0.819327 0.397184 0.425743
685 2 0.940776 0.288059 0.406346
191 1 0.00504747 0.599042 0.393478
192 1 0.195611 0.647379 0.386413
216 1 0.99609 0.628763 0.435143
217 1 0.21979 0.646688 0.432014
686 2 0.13623 0.554915 0.40734
691 2 0.10583 0.734002 0.412422
193 1 0.403878 0.631677 0.387068
218 1 0.415168 0.633408 0.434365
687 2 0.286701 0.528967 0.405769
692 2 0.313778 0.707162 0.408975
194 1 0.626601 0.548203 0.393131
219 1 0.658884 0.617108 0.428573
688 2 0.479477 0.479247 0.404747
689 2 0.746706 0.514012 0.409514
693 2 0.521478 0.660969 0.410547
694 2 0.703497 0.718912 0.402904
195 1 0.83207 0.61303 0.385386
220 1 0.835076 0.609302 0.430911
690 2 0.898031 0.484356 0.406413
695 2 0.920261 0.720646 0.406352
196 1 0.968763 0.851107 0.390613
197 1 0.232085 0.812328 0.382251
221 1 5.60207e-05 0.810925 0.43339
222 1 0.225779 0.807126 0.426458
696 2 0.116229 0.886088 0.402582
198 1 0.421181 0.786006 0.383543
223 1 0.422465 0.78791 0.429666
697 2 0.342371 0.90671 0.402508
199 1 0.606362 0.856312 0.385005
224 1 0.628112 0.824577 0.42442
698 2 0.499432 0.909257 0.40646
699 2 0.724334 0.923778 0.404855
200 1 0.824448 0.802982 0.380801
225 1 0.797726 0.822344 0.427295
700 2 0.867183 0.956942 0.412298
226 1 0.0143391 0.0215949 0.476144
227 1 0.226388 0.992796 0.472009
231 1 0.000301257 0.200126 0.468002
232 1 0.192334 0.22026 0.462919
701 2 0.136788 0.0848964 0.452045
228 1 0.372166 0.021346 0.468716
233 1 0.421645 0.204084 0.46685
702 2 0.317176 0.0915155 0.443772
229 1 0.617536 0.0019196 0.470361
234 1 0.601054 0.245831 0.469695
703 2 0.488524 0.0793668 0.448261
704 2 0.650188 0.123835 0.452417
230 1 0.765847 0.0400156 0.470474
235 1 0.829857 0.198685 0.467469
705 2 0.917638 0.0946577 0.448801
236 1 0.0168189 0.432847 0.468873
237 1 0.187759 0.416889 0.475954
706 2 0.0913096 0.31036 0.446906
238 1 0.396549 0.422143 0.466624
707 2 0.299627 0.328053 0.45359
239 1 0.617486 0.400525 0.469098
708 2 0.507513 0.345165 0.451381
709 2 0.704065 0.309729 0.451354
240 1 0.83011 0.369352 0.469209
710 2 0.944509 0.319325 0.443955
241 1 0.0143583 0.614295 0.469938
242 1 0.234154 0.645629 0.474923
711 2 0.124767 0.541066 0.455739
716 2 0.117141 0.740867 0.452802
243 1 0.419072 0.630896 0.4714
712 2 0.285046 0.50088 0.448438
717 2 0.315471 0.724763 0.453709
244 1 0.660449 0.574065 0.471561
713 2 0.560534 0.517324 0.450159
714 2 0.710651 0.478014 0.448062
718 2 0.550839 0.689995 0.449655
719 2 0.719916 0.726082 0.449031
245 1 0.817928 0.606444 0.469861
715 2 0.879051 0.488017 0.453148
720 2 0.875422 0.725064 0.452539
246 1 0.98823 0.798277 0.468753
247 1 0.228606 0.829917 0.47369
721 2 0.126447 0.904715 0.451571
248 1 0.438082 0.772588 0.47327
722 2 0.332854 0.880469 0.455164
249 1 0.582309 0.816038 0.468439
723 2 0.52472 0.911986 0.443232
724 2 0.713234 0.901665 0.45495
250 1 0.824841 0.831384 0.474616
725 2 0.904276 0.912665 0.448472
251 1 0.00361929 0.0249607 0.51353
252 1 0.201581 0.0335485 0.509594
256 1 0.998769 0.184918 0.50583
257 1 0.216651 0.205824 0.508701
726 2 0.122705 0.126886 0.488075
253 1 0.399795 0.0379122 0.505242
258 1 0.394914 0.220145 0.504902
727 2 0.292403 0.130692 0.482454
254 1 0.643266 0.0412806 0.507193
259 1 0.605549 0.211554 0.510858
728 2 0.508388 0.112518 0.486137
729 2 0.716311 0.160245 0.489763
255 1 0.80171 0.0168087 0.508258
260 1 0.852033 0.248266 0.50235
730 2 0.893458 0.109874 0.488675
261 1 0.0223242 0.412768 0.510782
262 1 0.201839 0.435039 0.511873
731 2 0.0918331 0.281314 0.488958
263 1 0.392809 0.4171 0.505895
732 2 0.285128 0.328448 0.488695
264 1 0.59506 0.41954 0.508021
733 2 0.502081 0.309713 0.48789
734 2 0.696674 0.309944 0.493503
265 1 0.848058 0.393885 0.510992
735 2 0.956718 0.332657 0.486992
266 1 0.992392 0.654834 0.508682
267 1 0.224227 0.632357 0.512816
736 2 0.101583 0.530063 0.492301
741 2 0.125605 0.732179 0.490064
268 1 0.387592 0.637242 0.507016
737 2 0.307054 0.531119 0.485831
742 2 0.329039 0.760389 0.494667
269 1 0.620406 0.577305 0.507499
738 2 0.508809 0.528717 0.483502
739 2 0.756451 0.472013 0.490843
743 2 0.536107 0.68633 0.489747
744 2 0.732583 0.699833 0.484812
270 1 0.811585 0.595401 0.505137
740 2 0.928841 0.511375 0.487808
745 2 0.892077 0.707387 0.48822
271 1 0.0072127 0.815159 0.507518
272 1 0.19448 0.813888 0.517468
746 2 0.114222 0.922528 0.49155
273 1 0.449081 0.830671 0.51686
747 2 0.313933 0.910217 0.498364
274 1 0.621271 0.786413 0.50362
748 2 0.485039 0.908731 0.483376
749 2 0.699613 0.897259 0.491469
275 1 0.804806 0.820363 0.510752
750 2 0.902503 0.940536 0.491374
276 1 0.977393 0.020939 0.548445
277 1 0.1799 0.0366913 0.547081
281 1 0.0408515 0.223204 0.542277
282 1 0.221145 0.206507 0.5493
751 2 0.09813 0.121511 0.522841
776 2 0.0979027 0.157789 0.572451
278 1 0.433268 0.0289213 0.541891
283 1 0.390581 0.223927 0.549549
752 2 0.308602 0.109494 0.522737
777 2 0.321059 0.0849741 0.562329
279 1 0.615985 0.038108 0.541329
284 1 0.608176 0.222463 0.547338
753 2 0.494975 0.135994 0.5229
754 2 0.724114 0.147935 0.528976
778 2 0.483425 0.137974 0.566277
779 2 0.739823 0.124408 0.568937
280 1 0.805854 0.0108735 0.549096
285 1 0.812461 0.237327 0.552151
755 2 0.881202 0.130441 0.528006
780 2 0.922308 0.152991 0.566038
286 1 0.0142913 0.398706 0.543169
287 1 0.20023 0.47533 0.548227
756 2 0.138087 0.320685 0.525462
781 2 0.145865 0.328542 0.562037
288 1 0.41086 0.425103 0.54556
757 2 0.296356 0.325849 0.532121
782 2 0.287309 0.371491 0.566388
289 1 0.609184 0.428831 0.543385
758 2 0.502018 0.316329 0.528219
759 2 0.717442 0.326725 0.528493
783 2 0.455817 0.330258 0.568698
784 2 0.693236 0.338317 0.56393
290 1 0.814273 0.421344 0.546794
760 2 0.915935 0.294895 0.532765
785 2 0.928236 0.332729 0.569423
291 1 0.988303 0.631502 0.545186
292 1 0.219387 0.626376 0.54881
761 2 0.0972428 0.554017 0.529239
766 2 0.104079 0.702753 0.526201
786 2 0.0723129 0.4866 0.56695
791 2 0.10023 0.688731 0.567414
293 1 0.406316 0.629084 0.552514
762 2 0.318902 0.520623 0.526678
767 2 0.326589 0.720657 0.535353
787 2 0.313114 0.524808 0.570388
792 2 0.33131 0.722209 0.57696
294 1 0.635695 0.595096 0.548044
763 2 0.491726 0.527378 0.529806
764 2 0.725068 0.504503 0.525675
768 2 0.504206 0.690096 0.529214
769 2 0.718336 0.700775 0.523939
788 2 0.501667 0.510474 0.568396
789 2 0.710888 0.498272 0.566378
793 2 0.543659 0.682088 0.566239
794 2 0.704091 0.667735 0.570898
295 1 0.815645 0.583545 0.545159
765 2 0.926918 0.507718 0.527909
770 2 0.865985 0.702133 0.531496
790 2 0.90851 0.492442 0.568824
795 2 0.888386 0.714594 0.566426
296 1 0.00970462 0.826519 0.548318
297 1 0.221353 0.80896 0.552198
771 2 0.0893384 0.933589 0.529811
796 2 0.118306 0.920928 0.565114
298 1 0.432837 0.792615 0.553821
772 2 0.306373 0.962113 0.533138
797 2 0.326641 0.884255 0.568423
299 1 0.624255 0.781651 0.540122
773 2 0.56044 0.91299 0.522516
774 2 0.713272 0.924033 0.530194
798 2 0.510385 0.918156 0.559312
799 2 0.693849 0.922927 0.569491
300 1 0.780364 0.816517 0.549488
775 2 0.913039 0.903644 0.528427
800 2 0.858882 0.928053 0.576233
301 1 0.98518 0.00977979 0.584716
302 1 0.23227 0.0101882 0.588732
306 1 0.990724 0.235748 0.592673
307 1 0.252352 0.191725 0.587441
801 2 0.104845 0.106846 0.608308
303 1 0.441473 0.00696437 0.585372
308 1 0.403686 0.214017 0.594803
802 2 0.34396 0.0985084 0.615316
304 1 0.604729 0.0568048 0.579535
309 1 0.597053 0.212397 0.587185
803 2 0.511249 0.140489 0.618983
804 2 0.727695 0.104076 0.608358
305 1 0.884404 0.0954437 0.602955
310 1 0.806769 0.261588 0.589141
805 2 0.882682 0.166778 0.638113
311 1 0.0295365 0.381995 0.592776
312 1 0.188309 0.440204 0.588507
806 2 0.130893 0.303392 0.609631
313 1 0.387381 0.423119 0.593834
807 2 0.296304 0.333412 0.612523
314 1 0.60074 0.424905 0.58472
808 2 0.500117 0.305688 0.612243
809 2 0.664659 0.29775 0.613827
315 1 0.808268 0.437544 0.592754
810 2 0.909771 0.323481 0.61516
316 1 0.996553 0.621613 0.588656
317 1 0.203962 0.618728 0.591396
811 2 0.0891526 0.520374 0.614026
816 2 0.0748098 0.719331 0.611337
318 1 0.422895 0.602886 0.592443
812 2 0.29151 0.537374 0.611856
817 2 0.288362 0.739809 0.615627
319 1 0.596718 0.559652 0.593706
813 2 0.513682 0.465606 0.615039
814 2 0.719687 0.518573 0.620192
818 2 0.541732 0.688936 0.606125
819 2 0.686624 0.687937 0.612982
320 1 0.843843 0.612581 0.593261
815 2 0.918869 0.507837 0.612962
820 2 0.920084 0.72937 0.606237
321 1 0.0234226 0.824311 0.588412
322 1 0.193813 0.821893 0.587507
821 2 0.0927405 0.93557 0.610568
323 1 0.430746 0.822086 0.590795
822 2 0.326757 0.916333 0.609971
324 1 0.614329 0.797305 0.583029
823 2 0.52223 0.927686 0.606521
824 2 0.718826 0.949956 0.608739
325 1 0.772024 0.806531 0.59042
825 2 0.895022 0.887969 0.615252
326 1 0.983284 0.033221 0.628292
327 1 0.199536 0.0126328 0.634127
331 1 0.0292152 0.19587 0.628864
332 1 0.223146 0.184929 0.625864
826 2 0.101187 0.103011 0.653687
328 1 0.459771 0.00126156 0.63703
333 1 0.409737 0.212339 0.639383
827 2 0.332134 0.0815009 0.661574
329 1 0.614381 0.0447073 0.630822
334 1 0.588774 0.227844 0.641658
828 2 0.483773 0.106213 0.665411
829 2 0.658351 0.0938113 0.664199
330 1 0.797752 0.0296361 0.637102
335 1 0.740841 0.191511 0.639805
830 2 0.970106 0.0481115 0.674299
336 1 0.984269 0.402436 0.641963
337 1 0.184883 0.428472 0.63417
831 2 0.134894 0.30378 0.652177
338 1 0.387865 0.465759 0.634885
832 2 0.294496 0.341802 0.652488
339 1 0.617239 0.416509 0.639703
833 2 0.467244 0.342249 0.654906
834 2 0.698421 0.321435 0.660988
340 1 0.771364 0.370503 0.62864
835 2 0.868931 0.292504 0.659762
341 1 0.97752 0.623436 0.635737
342 1 0.192075 0.628645 0.633355
836 2 0.106168 0.515174 0.664379
841 2 0.118225 0.738125 0.650434
343 1 0.416986 0.614671 0.630622
837 2 0.268985 0.520967 0.6511
842 2 0.297708 0.716653 0.653996
344 1 0.591331 0.581381 0.634868
838 2 0.507934 0.492061 0.670131
839 2 0.692232 0.506059 0.664261
843 2 0.5442 0.727415 0.645603
844 2 0.691766 0.689714 0.656463
345 1 0.824313 0.61252 0.634417
840 2 0.913937 0.528771 0.666096
845 2 0.876038 0.716385 0.666053
346 1 0.994813 0.805133 0.637672
347 1 0.1876 0.84679 0.62737
846 2 0.0651242 0.950526 0.653109
348 1 0.421482 0.785255 0.6317
847 2 0.319778 0.927946 0.648408
349 1 0.624077 0.819545 0.623321
848 2 0.529666 0.875207 0.652143
849 2 0.688964 0.935019 0.647791
350 1 0.785081 0.778104 0.633548
850 2 0.904222 0.93994 0.655484
351 1 0.0588361 0.944398 0.691565
352 1 0.206526 0.0137341 0.6768
356 1 0.00665062 0.233133 0.668057
357 1 0.230369 0.224788 0.673111
851 2 0.089724 0.141957 0.692861
353 1 0.411005 0.965268 0.676208
358 1 0.400645 0.225748 0.681613
852 2 0.313699 0.136238 0.701089
354 1 0.593157 0.958896 0.686752
359 1 0.556953 0.237854 0.679781
853 2 0.457814 0.0825118 0.704922
854 2 0.628227 0.12998 0.702804
355 1 0.748664 0.0195664 0.686572
360 1 0.815096 0.153285 0.675544
855 2 0.920626 0.0997591 0.705961
361 1 0.0335531 0.402058 0.682734
362 1 0.198101 0.399572 0.677729
856 2 0.149436 0.282085 0.706057
363 1 0.355584 0.457502 0.676844
857 2 0.288409 0.333782 0.701819
364 1 0.61611 0.409065 0.688044
858 2 0.45868 0.364212 0.6925
859 2 0.699194 0.272917 0.700572
365 1 0.789043 0.415168 0.68467
860 2 0.936898 0.31341 0.699183
366 1 0.0252279 0.637979 0.685802
367 1 0.203539 0.640072 0.676867
861 2 0.102792 0.502764 0.706481
866 2 0.132536 0.760477 0.697231
368 1 0.393429 0.613499 0.679188
862 2 0.263291 0.540381 0.699136
867 2 0.298242 0.763023 0.69633
369 1 0.577982 0.630902 0.68203
863 2 0.514043 0.528611 0.711623
864 2 0.69385 0.536282 0.715287
868 2 0.477586 0.70177 0.702532
869 2 0.715595 0.704554 0.702041
370 1 0.798641 0.576578 0.689155
865 2 0.941495 0.516169 0.704863
870 2 0.869669 0.725742 0.705479
371 1 0.98396 0.80101 0.688401
372 1 0.170183 0.866608 0.672949
871 2 0.136887 0.903405 0.726049
373 1 0.414705 0.811786 0.672349
872 2 0.288937 0.916561 0.702618
374 1 0.5752 0.772814 0.679927
873 2 0.469078 0.867312 0.709407
874 2 0.71206 0.89802 0.714159
375 1 0.766159 0.852258 0.674418
875 2 0.873766 0.926968 0.704473
376 1 0.992649 0.981934 0.734441
377 1 0.194135 0.0493081 0.723315
381 1 0.00195065 0.223669 0.724893
382 1 0.219748 0.191654 0.72822
401 1 0.0237598 0.014653 0.798612
402 1 0.201666 0.0832404 0.780504
406 1 0.0573822 0.19473 0.791639
407 1 0.220348 0.226559 0.77709
876 2 0.111398 0.123565 0.751173
378 1 0.407348 0.996264 0.735949
383 1 0.421628 0.237054 0.723797
403 1 0.42611 0.985672 0.78199
408 1 0.392839 0.279348 0.785313
877 2 0.331738 0.151784 0.755542
379 1 0.580872 0.00405932 0.725076
384 1 0.569956 0.250861 0.722868
404 1 0.554049 0.968633 0.765247
409 1 0.491118 0.176074 0.778702
878 2 0.513295 0.118838 0.743948
879 2 0.66791 0.129898 0.740406
380 1 0.777789 0.0465852 0.725707
385 1 0.808987 0.227697 0.729042
405 1 0.839224 0.977589 0.795304
410 1 0.809897 0.168816 0.769959
880 2 0.920589 0.102188 0.753484
386 1 0.012942 0.39827 0.725415
387 1 0.185539 0.418697 0.727522
411 1 0.941289 0.384016 0.795464
412 1 0.155928 0.409068 0.783119
881 2 0.115743 0.294011 0.748003
388 1 0.363381 0.448401 0.721484
413 1 0.394931 0.434485 0.765078
882 2 0.275968 0.319478 0.74598
389 1 0.650047 0.394653 0.73487
414 1 0.549658 0.379142 0.776851
883 2 0.490519 0.387255 0.73753
884 2 0.766068 0.32578 0.758185
390 1 0.798582 0.385613 0.721449
415 1 0.772952 0.431766 0.790741
885 2 0.955424 0.312785 0.758299
391 1 0.0216755 0.629385 0.73054
392 1 0.189843 0.6465 0.723782
416 1 0.975147 0.535346 0.780219
417 1 0.160636 0.601429 0.788057
886 2 0.0911211 0.492184 0.753209
891 2 0.0639357 0.685056 0.764116
393 1 0.367425 0.611085 0.725532
418 1 0.430403 0.559081 0.783403
887 2 0.251562 0.538024 0.751757
892 2 0.31564 0.707407 0.764871
394 1 0.594301 0.637446 0.735404
419 1 0.633004 0.577907 0.79009
888 2 0.554165 0.52738 0.760364
889 2 0.734655 0.502323 0.755989
893 2 0.48528 0.674888 0.764246
894 2 0.73076 0.703744 0.762469
395 1 0.838233 0.612364 0.730078
420 1 0.801597 0.579285 0.788036
890 2 0.881846 0.474704 0.747459
895 2 0.912702 0.677655 0.767833
396 1 0.0144583 0.797331 0.738359
397 1 0.223192 0.775777 0.738851
421 1 0.968812 0.816521 0.777747
422 1 0.174341 0.819659 0.777833
896 2 0.0926254 0.950184 0.767787
398 1 0.374371 0.781016 0.729432
423 1 0.34621 0.853098 0.785471
897 2 0.272791 0.943098 0.751741
399 1 0.610503 0.781958 0.729065
424 1 0.540407 0.802868 0.789898
898 2 0.487452 0.832079 0.747958
899 2 0.671318 0.872239 0.770488
400 1 0.794789 0.827592 0.738227
425 1 0.813496 0.791244 0.794715
900 2 0.879091 0.941852 0.757844
426 1 0.0329923 0.976579 0.843377
427 1 0.306251 0.065308 0.846821
431 1 0.993419 0.213292 0.830854
432 1 0.180542 0.187578 0.84869
901 2 0.161779 0.106039 0.817143
428 1 0.404935 0.954169 0.826076
433 1 0.370851 0.245748 0.830856
902 2 0.314424 0.146154 0.803053
429 1 0.63368 0.0327027 0.837869
434 1 0.586518 0.244722 0.842658
903 2 0.474109 0.110118 0.815236
904 2 0.67807 0.0742091 0.778683
430 1 0.85054 0.978726 0.840002
435 1 0.735558 0.164321 0.821779
905 2 0.886561 0.123042 0.811224
436 1 0.936193 0.356265 0.832092
437 1 0.245673 0.367492 0.858741
906 2 0.118976 0.290624 0.816144
438 1 0.389694 0.408564 0.828879
907 2 0.262633 0.327753 0.807621
439 1 0.552822 0.402326 0.849621
908 2 0.529399 0.341975 0.813659
909 2 0.648339 0.265331 0.783687
440 1 0.682125 0.324415 0.816784
910 2 0.829522 0.272483 0.80053
441 1 0.107066 0.605271 0.843044
442 1 0.235477 0.718844 0.832771
911 2 0.079773 0.459091 0.815735
916 2 0.0774936 0.770671 0.81594
443 1 0.38958 0.604059 0.848469
912 2 0.25773 0.481254 0.81056
917 2 0.307495 0.654387 0.803737
444 1 0.618147 0.602534 0.833937
913 2 0.518637 0.501559 0.815504
914 2 0.675007 0.461649 0.818413
918 2 0.4944 0.651853 0.815726
919 2 0.674086 0.706602 0.802966
445 1 0.783443 0.639889 0.832213
915 2 0.837174 0.491316 0.827811
920 2 0.94201 0.632758 0.814863
446 1 0.980353 0.830112 0.850847
447 1 0.153718 0.877425 0.848743
921 2 0.126654 0.913094 0.806371
448 1 0.394047 0.778799 0.832297
922 2 0.276865 0.970535 0.802884
449 1 0.590796 0.769493 0.835769
923 2 0.551399 0.930539 0.818696
924 2 0.717871 0.8947 0.8119
450 1 0.823186 0.796065 0.839262
925 2 0.967128 0.886611 0.814474
451 1 0.00873892 0.0799203 0.90963
452 1 0.170474 0.992151 0.913916
456 1 0.00805118 0.270168 0.912062
457 1 0.190448 0.283864 0.896892
926 2 0.075441 0.0998692 0.864604
453 1 0.366559 0.969471 0.895267
458 1 0.413884 0.198613 0.902164
927 2 0.2108 0.104003 0.890376
454 1 0.59371 0.993435 0.870769
459 1 0.578959 0.154116 0.892007
928 2 0.453031 0.100997 0.865653
929 2 0.727021 0.0899857 0.869556
455 1 0.719621 0.0578943 0.908033
460 1 0.82498 0.198776 0.904225
930 2 0.889185 0.13808 0.864629
461 1 0.10707 0.418974 0.899434
462 1 0.304564 0.45931 0.904842
931 2 0.09141 0.306305 0.86286
463 1 0.415396 0.450435 0.873841
932 2 0.322902 0.228938 0.869405
464 1 0.544462 0.425213 0.891328
933 2 0.49719 0.28564 0.872616
934 2 0.709673 0.252316 0.875527
465 1 0.939247 0.395801 0.901537
935 2 0.816692 0.299868 0.852092
466 1 0.996888 0.546112 0.893172
467 1 0.194855 0.616037 0.893812
936 2 0.113205 0.459749 0.858794
941 2 0.122541 0.743193 0.865004
468 1 0.392852 0.62775 0.905903