ITEM: TIMESTEP
7140
ITEM: NUMBER OF ATOMS
1000
ITEM: BOX BOUNDS pp pp pp
0.0000000000000000e+00 6.2996052494743662e+00
0.0000000000000000e+00 6.2996052494743662e+00
0.0000000000000000e+00 2.5198420997897465e+01
ITEM: ATOMS id type xs ys zs
11 1 0.198317 0.078684 0.0187435
80 1 0.115264 0.0468085 0.0625585
486 1 0.0428473 0.211074 0.00235084
528 2 0.0375035 0.223276 0.0473737
985 2 0.260601 0.147616 0.0494347
489 1 0.429955 0.179181 0.058456
482 1 0.365373 0.0466108 0.0209512
980 2 0.481943 0.150763 0.0158384
12 1 0.471303 0.0330835 0.0472943
927 2 0.321758 0.208814 0.00914707
522 2 0.626168 0.0821486 0.994407
512 2 0.60636 0.0922003 0.0506078
529 2 0.699401 0.209327 0.0320435
504 2 0.686323 0.0181593 0.0277048
534 2 0.84805 0.148074 0.0285559
477 1 0.00689329 0.0615827 0.0250558
51 1 0.00646133 0.377198 0.00329173
61 1 0.083411 0.3566 0.0347603
510 2 0.138769 0.488711 0.00999856
963 2 0.199233 0.281565 0.0169016
517 2 0.221409 0.411172 0.0347903
957 2 0.361301 0.320194 0.0369036
49 1 0.34612 0.462702 0.0134597
63 1 0.576572 0.276353 0.0370499
999 2 0.465167 0.358719 0.00764998
558 2 0.667948 0.401653 0.0196395
574 2 0.747401 0.338815 0.993763
977 2 0.919584 0.256546 0.0180285
508 2 0.779791 0.522246 0.0034211
506 2 0.809298 0.337796 0.039046
545 2 0.056237 0.492361 0.0395539
520 2 0.968907 0.674883 0.0294105
488 1 0.110758 0.659435 0.00532783
33 1 0.451878 0.488217 0.0394387
43 1 0.37897 0.650619 0.0298425
18 1 0.328867 0.554132 0.0592961
3 1 0.499437 0.738595 0.00602496
962 2 0.249379 0.594581 0.0141836
514 2 0.471508 0.520606 0.995931
516 2 0.55219 0.689781 0.0522451
24 1 0.609166 0.567088 0.0172075
524 2 0.619045 0.549053 0.061964
17 1 0.687834 0.743299 0.0170119
549 2 0.736287 0.6843 0.0599914
485 1 0.786113 0.531266 0.0492728
15 1 0.882189 0.644386 0.0637205
961 2 0.93861 0.499832 0.0182984
6 1 0.825018 0.676134 0.0219518
1 1 0.0623977 0.867397 0.0504188
982 2 0.106933 0.961723 0.00862804
967 2 0.149434 0.748294 0.0377402
13 1 0.262678 0.952958 0.0421673
951 2 0.272161 0.925102 0.00170926
997 2 0.357605 0.812521 0.0252653
9 1 0.489983 0.879719 0.0381406
8 1 0.498643 0.00132996 0.0121992
498 1 0.643648 0.841599 0.0429821
507 2 0.963117 0.827427 0.0227147
5 1 0.861023 0.977424 0.0111081
575 2 0.88837 0.960601 0.0629543
95 1 0.806832 0.834174 0.0477096
35 1 0.0439938 0.196034 0.0886675
555 2 0.184901 0.0955913 0.0976162
44 1 0.0381935 0.0431007 0.102187
52 1 0.32384 0.0853403 0.0866004
551 2 0.4065 0.140983 0.116091
573 2 0.792185 0.137134 0.0726899
56 1 0.512118 0.28086 0.0843736
526 2 0.592648 0.159522 0.0865709
28 1 0.484178 0.0345295 0.0860036
27 1 0.712016 0.951056 0.0783148
503 2 0.746521 0.145309 0.116135
34 1 0.896557 0.176137 0.0983598
71 1 0.946477 0.0960485 0.0613673
981 2 0.0595654 0.366502 0.0733623
40 1 0.0086289 0.508006 0.0910744
532 2 0.193599 0.286319 0.072517
89 1 0.0644128 0.376748 0.118403
86 1 0.167174 0.470471 0.0713478
85 1 0.226054 0.412349 0.107101
7 1 0.332851 0.257223 0.0793975
65 1 0.387945 0.397575 0.0687226
556 2 0.397754 0.39784 0.106354
73 1 0.684158 0.297356 0.0631744
538 2 0.536506 0.441469 0.0838094
527 2 0.57102 0.324582 0.123175
50 1 0.729452 0.466875 0.0804185
487 1 0.894618 0.253084 0.0653823
511 2 0.933469 0.442951 0.056882
533 2 0.856113 0.381452 0.0862002
78 1 0.71722 0.271312 0.103811
70 1 0.0587774 0.647967 0.0644696
21 1 0.222403 0.654938 0.063768
39 1 0.128514 0.640049 0.102924
525 2 0.39964 0.708056 0.0702243
42 1 0.320034 0.574893 0.0998037
550 2 0.463465 0.584602 0.0817782
23 1 0.544421 0.726827 0.0951515
523 2 0.666251 0.632264 0.0886917
998 2 0.738098 0.587794 0.124623
509 2 0.860621 0.547892 0.0928795
559 2 0.786789 0.696256 0.0986332
10 1 0.98422 0.699787 0.10125
530 2 0.959408 0.925695 0.0996997
540 2 0.117046 0.768363 0.126465
502 2 0.0906627 0.794251 0.0871805
101 1 0.163001 0.914904 0.0793115
36 1 0.369582 0.937562 0.0729764
37 1 0.257163 0.797235 0.0650184
546 2 0.263168 0.728785 0.111482
57 1 0.425612 0.839516 0.0934554
98 1 0.355307 0.968829 0.111953
548 2 0.681339 0.797763 0.078662
48 1 0.546252 0.893465 0.0744894
74 1 0.640256 0.859029 0.11925
100 1 0.928908 0.790654 0.0701193
565 2 0.842012 0.018449 0.0977553
96 1 0.80891 0.851828 0.102529
59 1 0.998102 0.16112 0.125535
26 1 0.112371 0.0699467 0.135442
81 1 0.108254 0.0688846 0.193049
580 2 0.0998435 0.18791 0.168559
82 1 0.245512 0.143501 0.135428
93 1 0.369601 0.0481615 0.147485
128 1 0.412315 0.160156 0.179093
53 1 0.516934 0.0848215 0.161117
552 2 0.552259 0.13833 0.120376
125 1 0.655086 0.217255 0.145956
576 2 0.980418 0.0769304 0.168383
554 2 0.856955 0.121555 0.150832
41 1 0.14192 0.486071 0.142969
598 2 0.144536 0.236796 0.115062
581 2 0.195893 0.323562 0.151912
99 1 0.0166042 0.289302 0.147603
77 1 0.308471 0.277391 0.115914
87 1 0.384329 0.316088 0.149953
561 2 0.514343 0.430565 0.151366
590 2 0.324061 0.433908 0.134907
547 2 0.595087 0.516616 0.110831
583 2 0.521063 0.252666 0.15972
62 1 0.652631 0.362205 0.150216
531 2 0.776531 0.414201 0.116171
14 1 0.933796 0.455265 0.128305
92 1 0.878753 0.307274 0.136898
519 2 0.782919 0.449776 0.152969
553 2 0.00924014 0.449723 0.163149
64 1 0.0356262 0.579772 0.131999
595 2 0.139916 0.66529 0.153844
542 2 0.413926 0.706103 0.117354
564 2 0.319212 0.601463 0.144468
38 1 0.483519 0.564976 0.131362
91 1 0.238457 0.537762 0.169426
562 2 0.69803 0.572652 0.161045
537 2 0.594729 0.670091 0.144407
543 2 0.729997 0.733584 0.133516
116 1 0.537546 0.568102 0.173252
139 1 0.638904 0.69325 0.181752
513 2 0.911085 0.766575 0.129305
66 1 0.986424 0.673502 0.164717
88 1 0.866988 0.610729 0.139828
541 2 0.170281 0.818323 0.156159
560 2 0.219896 0.912053 0.121306
566 2 0.134959 0.967132 0.162345
587 2 0.00735389 0.874802 0.152377
97 1 0.348752 0.854897 0.139743
571 2 0.50994 0.85538 0.142118
567 2 0.302693 0.936146 0.174938
596 2 0.368368 0.790791 0.176177
83 1 0.519553 0.987397 0.123958
577 2 0.707368 0.994323 0.168813
572 2 0.64673 0.836631 0.163348
69 1 0.9805 0.99025 0.132764
600 2 0.74735 0.978184 0.130983
539 2 0.802942 0.867523 0.148198
76 1 0.0206462 0.188316 0.206776
602 2 0.140519 0.151739 0.230422
601 2 0.152421 0.254674 0.200604
102 1 0.272035 0.139368 0.196222
603 2 0.341347 0.00592637 0.212099
157 1 0.477663 0.13489 0.216247
578 2 0.449338 0.991681 0.183106
134 1 0.628287 0.0915118 0.224885
599 2 0.607972 0.168197 0.18129
60 1 0.920847 0.250977 0.174559
68 1 0.776616 0.135869 0.181684
605 2 0.901571 0.0814079 0.202344
579 2 0.772181 0.152977 0.224505
535 2 0.184607 0.426867 0.188708
585 2 0.0239842 0.331893 0.195882
107 1 0.238992 0.29254 0.231086
582 2 0.101763 0.430811 0.225351
150 1 0.0101834 0.281924 0.239222
610 2 0.287995 0.295606 0.184467
611 2 0.425113 0.27499 0.205405
607 2 0.310297 0.410852 0.210219
632 2 0.38396 0.477611 0.174134
142 1 0.441274 0.407535 0.239205
79 1 0.730734 0.278609 0.175101
112 1 0.557393 0.332808 0.189933
557 2 0.699075 0.423403 0.193182
586 2 0.571434 0.498524 0.206585
638 2 0.575276 0.260327 0.24228
54 1 0.849817 0.38262 0.185237
604 2 0.893745 0.259773 0.214477
84 1 0.930142 0.46818 0.210439
609 2 0.778401 0.43319 0.231407
120 1 0.102878 0.754446 0.184041
122 1 0.252449 0.696158 0.181463
111 1 0.0749898 0.561302 0.188604
591 2 0.190134 0.724713 0.230828
146 1 0.0727365 0.615145 0.224634
570 2 0.405728 0.637705 0.174335
141 1 0.213738 0.554689 0.20656
72 1 0.350398 0.696369 0.210178
608 2 0.391415 0.547398 0.207803
589 2 0.700018 0.58626 0.198915
592 2 0.680911 0.718219 0.223327
67 1 0.518703 0.696397 0.221084
90 1 0.813218 0.695911 0.184817
94 1 0.848224 0.55551 0.174065
639 2 0.816953 0.63743 0.234649
615 2 0.929344 0.628846 0.205142
588 2 0.0401305 0.819323 0.230475
117 1 0.147978 0.951397 0.215768
105 1 0.0171926 0.957247 0.191186
108 1 0.22237 0.836389 0.201009
622 2 0.416641 0.851073 0.207944
127 1 0.487459 0.96886 0.224845
597 2 0.507294 0.770999 0.182003
568 2 0.572547 0.829023 0.213871
536 2 0.592181 0.984682 0.19454
144 1 0.758527 0.993355 0.210793
113 1 0.737724 0.846862 0.192229
55 1 0.865135 0.942224 0.180169
563 2 0.946952 0.806153 0.190705
594 2 0.887593 0.764676 0.226388
569 2 0.950572 0.953015 0.227128
650 2 0.160803 0.239763 0.25998
151 1 0.0930401 0.0904677 0.270993
667 2 0.229402 0.0610892 0.250854
626 2 0.324556 0.158134 0.229257
153 1 0.38105 0.0297588 0.252473
177 1 0.275259 0.16215 0.273988
647 2 0.518365 0.113839 0.253381
131 1 0.653733 0.165855 0.281964
160 1 0.705069 0.0492718 0.257027
110 1 0.960907 0.128401 0.244201
124 1 0.846472 0.0173546 0.246261
623 2 0.849331 0.214595 0.255313
175 1 0.835897 0.132624 0.291857
621 2 0.93918 0.0135985 0.282102
106 1 0.100476 0.369494 0.301133
140 1 0.0856684 0.430716 0.261531
136 1 0.250879 0.47073 0.298546
606 2 0.229018 0.371624 0.265609
637 2 0.416056 0.44175 0.289027
137 1 0.378009 0.278293 0.260007
634 2 0.610405 0.432117 0.244763
119 1 0.669321 0.355097 0.289793
109 1 0.716397 0.317742 0.247883
135 1 0.759829 0.461151 0.270838
619 2 0.569332 0.486023 0.277739
138 1 0.525193 0.325398 0.279347
172 1 0.0203822 0.25656 0.276834
671 2 0.900149 0.3644 0.249639
640 2 0.799749 0.311672 0.283965
145 1 0.944554 0.439972 0.282509
616 2 0.204972 0.716116 0.267519
636 2 0.175355 0.559887 0.251131
166 1 0.0507297 0.580383 0.269982
121 1 0.0257733 0.732667 0.26317
613 2 0.373728 0.738557 0.272674
617 2 0.343665 0.537733 0.24963
612 2 0.298625 0.625855 0.290489
148 1 0.453834 0.597752 0.293757
114 1 0.485562 0.555258 0.242016
635 2 0.662413 0.584771 0.238499
665 2 0.681414 0.621425 0.283715
624 2 0.527161 0.701859 0.262092
104 1 0.947197 0.535688 0.243975
123 1 0.747687 0.737856 0.257201
115 1 0.88052 0.662064 0.272889
130 1 0.794369 0.701919 0.301844
152 1 0.034922 0.934239 0.262237
672 2 0.175125 0.908979 0.257057
593 2 0.469361 0.825758 0.245205
642 2 0.263385 0.849242 0.284143
147 1 0.290737 0.0249166 0.286475
163 1 0.323864 0.875459 0.236897
118 1 0.452851 0.921736 0.278117
676 2 0.521647 0.808691 0.297506
103 1 0.577947 0.958344 0.255051
670 2 0.611941 0.816657 0.264876
614 2 0.717899 0.891298 0.23831
155 1 0.771763 0.953691 0.276385
625 2 0.865146 0.868897 0.259792
651 2 0.163125 0.0701511 0.336729
197 1 0.146507 0.169117 0.303469
627 2 0.43089 0.163424 0.282695
662 2 0.270677 0.219756 0.328757
190 1 0.451282 0.178328 0.335392
183 1 0.310684 0.0849491 0.324202
653 2 0.558303 0.251628 0.310758
655 2 0.562915 0.04392 0.315352
126 1 0.724043 0.248563 0.315409
628 2 0.627475 0.0811246 0.354328
180 1 0.715425 0.0511021 0.31567
182 1 0.00191993 0.118609 0.344015
675 2 0.970359 0.168581 0.309588
680 2 0.831853 0.144863 0.335329
646 2 0.902435 0.990849 0.319211
187 1 0.0289026 0.319844 0.332496
661 2 0.140668 0.473916 0.328241
133 1 0.40072 0.295528 0.312941
158 1 0.25705 0.321511 0.302974
132 1 0.183151 0.329316 0.34315
143 1 0.415075 0.483537 0.324853
633 2 0.487992 0.333113 0.354351
643 2 0.548283 0.405321 0.318007
159 1 0.639427 0.23379 0.346808
664 2 0.66783 0.501342 0.353937
652 2 0.902371 0.30554 0.314878
185 1 0.776745 0.289433 0.34938
156 1 0.948648 0.444155 0.332259
161 1 0.781151 0.410434 0.316504
666 2 0.854648 0.56053 0.33979
641 2 0.165155 0.634425 0.312058
167 1 0.283085 0.575323 0.328964
168 1 0.415074 0.649687 0.332085
169 1 0.669335 0.498763 0.312413
644 2 0.710742 0.656787 0.332611
170 1 0.570749 0.604797 0.331107
584 2 0.845274 0.536674 0.298071
618 2 0.9914 0.548977 0.308268
620 2 0.967535 0.726085 0.297073
191 1 0.905949 0.710615 0.333186
649 2 0.00698047 0.889199 0.305222
696 2 0.242914 0.731363 0.330585
648 2 0.133511 0.775474 0.299216
171 1 0.0655707 0.770407 0.335913
201 1 0.133574 0.00607727 0.303275
176 1 0.0195743 0.968557 0.339523
231 1 0.164359 0.877936 0.32622
198 1 0.457538 0.767434 0.357922
697 2 0.347608 0.854167 0.32623
673 2 0.422525 0.987209 0.309191
154 1 0.384457 0.0135215 0.349868
630 2 0.647192 0.939275 0.296352
164 1 0.712273 0.938944 0.342042
129 1 0.663973 0.75438 0.30375
149 1 0.520677 0.861681 0.330903
674 2 0.740368 0.799305 0.334461
629 2 0.849177 0.847298 0.305743
657 2 0.113114 0.209346 0.352214
212 1 0.0730717 0.100311 0.381188
682 2 0.210134 0.193797 0.395313
687 2 0.0287707 0.24732 0.389473
188 1 0.488007 0.107458 0.376532
678 2 0.328364 0.288404 0.365824
706 2 0.24732 0.144274 0.361047
658 2 0.358905 0.0618848 0.388623
707 2 0.377209 0.200585 0.404319
165 1 0.589908 0.219637 0.388089
179 1 0.660881 0.116294 0.417954
679 2 0.744943 0.141486 0.383765
677 2 0.893477 0.184941 0.375706
660 2 0.867355 0.0708731 0.400949
654 2 0.844844 0.0129339 0.358949
631 2 0.164649 0.526027 0.364823
192 1 0.0437593 0.42275 0.371743
686 2 0.249207 0.492932 0.394954
688 2 0.180206 0.354209 0.381152
217 1 0.332453 0.432457 0.356936
683 2 0.471109 0.305247 0.39182
717 2 0.46696 0.502539 0.40208
184 1 0.687023 0.275842 0.410976
189 1 0.593617 0.410075 0.377558
699 2 0.917484 0.305097 0.355387
710 2 0.941072 0.373035 0.402909
656 2 0.817404 0.292241 0.391219
669 2 0.731214 0.414562 0.387623
691 2 0.156166 0.681808 0.365973
220 1 0.0619024 0.595197 0.389105
203 1 0.211403 0.65478 0.401222
692 2 0.480559 0.496676 0.36085
721 2 0.367179 0.642081 0.403376
162 1 0.330697 0.613472 0.364962
173 1 0.487492 0.657006 0.379209
223 1 0.327065 0.75723 0.376034
195 1 0.61474 0.740075 0.366037
663 2 0.641947 0.578387 0.386013
244 1 0.778365 0.581943 0.375803
645 2 0.0257215 0.580512 0.344034
216 1 0.000726164 0.712559 0.368393
186 1 0.927472 0.528416 0.380279
199 1 0.792442 0.725398 0.365608
200 1 0.947545 0.679335 0.405101
207 1 0.162551 0.981476 0.377046
247 1 0.0704221 0.865248 0.371149
720 2 0.172715 0.794379 0.396332
178 1 0.269829 0.880047 0.360993
698 2 0.428286 0.917396 0.382603
202 1 0.279953 0.93933 0.399841
193 1 0.469296 0.775154 0.405945
174 1 0.568877 0.930408 0.362651
703 2 0.58216 0.0201343 0.394674
194 1 0.688109 0.807581 0.394635
700 2 0.977637 0.986594 0.385419
196 1 0.91242 0.853646 0.345357
221 1 0.987116 0.837552 0.401393
724 2 0.7904 0.895618 0.375539
225 1 0.837681 0.80893 0.404248
236 1 0.112602 0.140113 0.431253
235 1 0.0327224 0.0975346 0.463196
257 1 0.14314 0.980893 0.460016
735 2 0.222004 0.115786 0.464851
208 1 0.459831 0.0329947 0.420667
233 1 0.256888 0.052676 0.425535
214 1 0.386097 0.152619 0.446855
204 1 0.610568 0.0133171 0.446644
729 2 0.531763 0.150563 0.464577
684 2 0.515317 0.166535 0.422683
659 2 0.726013 0.161547 0.456797
681 2 0.987838 0.0549099 0.427233
209 1 0.88336 0.134447 0.445441
705 2 0.792723 0.00600641 0.45776
711 2 0.192453 0.402058 0.440686
181 1 0.0471325 0.263568 0.464588
237 1 0.0552311 0.444838 0.412226
736 2 0.120007 0.312847 0.415182
272 1 0.0882144 0.419334 0.471295
232 1 0.26537 0.231046 0.432968
213 1 0.328095 0.359597 0.414256
238 1 0.44619 0.30209 0.432897
242 1 0.338309 0.35677 0.46202
239 1 0.45384 0.448758 0.438807
689 2 0.581899 0.374522 0.420409
259 1 0.601031 0.254956 0.442712
211 1 0.972872 0.239026 0.430819
690 2 0.803626 0.188357 0.416494
709 2 0.80592 0.354461 0.428443
215 1 0.949753 0.395623 0.446776
210 1 0.852455 0.273198 0.46528
734 2 0.753808 0.411166 0.463652
222 1 0.0980657 0.704047 0.424686
695 2 0.151526 0.553744 0.425529
246 1 0.0567138 0.747197 0.465785
218 1 0.44451 0.608067 0.433332
713 2 0.388152 0.640652 0.466556
266 1 0.252226 0.66961 0.441479
716 2 0.324923 0.511704 0.430358
243 1 0.399661 0.758364 0.442794
718 2 0.663546 0.483713 0.421482
723 2 0.616951 0.64397 0.421039
694 2 0.550006 0.59445 0.472734
240 1 0.729223 0.55187 0.451757
693 2 0.906716 0.517368 0.418049
296 1 0.885343 0.630916 0.444611
275 1 0.782903 0.613229 0.414171
725 2 0.109894 0.955372 0.414735
746 2 0.129823 0.831982 0.438631
708 2 0.413002 0.890643 0.423274
722 2 0.304062 0.798721 0.41416
702 2 0.274623 0.883639 0.441593
748 2 0.504674 0.908573 0.460239
229 1 0.578501 0.87152 0.425035
749 2 0.711581 0.963844 0.412296
719 2 0.709213 0.745828 0.434181
668 2 0.561522 0.743283 0.451229
224 1 0.759235 0.862662 0.45568
205 1 0.877585 0.917004 0.430633
206 1 0.995372 0.934755 0.458424
745 2 0.938074 0.775561 0.438413
300 1 0.85461 0.771166 0.468478
726 2 0.0868452 0.119369 0.494959
731 2 0.146089 0.0485089 0.528171
760 2 0.220145 0.181416 0.504308
727 2 0.356817 0.989258 0.46164
733 2 0.389184 0.144646 0.485806
751 2 0.303368 0.0289791 0.508567
704 2 0.65438 0.987229 0.48964
753 2 0.480707 0.190998 0.51492
264 1 0.636814 0.146162 0.50328
255 1 0.593164 0.00457622 0.526154
230 1 0.761484 0.228935 0.497046
250 1 0.787157 0.0347475 0.50475
755 2 0.913229 0.0283482 0.477394
799 2 0.964329 0.0318538 0.513079
715 2 0.950223 0.189955 0.49883
759 2 0.827065 0.140723 0.529668
261 1 0.185845 0.28887 0.473457
265 1 0.0432491 0.29858 0.512279
740 2 0.129644 0.440039 0.507841
762 2 0.208808 0.307385 0.523545
732 2 0.347934 0.275738 0.501778
234 1 0.457653 0.259957 0.471797
728 2 0.509212 0.346212 0.520902
739 2 0.586832 0.417678 0.461005
778 2 0.610116 0.269825 0.489759
269 1 0.544571 0.48879 0.512742
685 2 0.953535 0.361014 0.487707
245 1 0.821987 0.502585 0.490447
761 2 0.931349 0.518969 0.521478
270 1 0.71043 0.391508 0.502241
241 1 0.96155 0.542303 0.472064
742 2 0.255878 0.507244 0.529379
767 2 0.109076 0.600074 0.511811
262 1 0.166697 0.577603 0.473752
712 2 0.303826 0.520223 0.469797
714 2 0.4493 0.474221 0.475845
747 2 0.32863 0.58544 0.503297
743 2 0.473125 0.614181 0.510385
273 1 0.215337 0.705541 0.512677
737 2 0.675055 0.671576 0.469603
738 2 0.679684 0.526644 0.491782
779 2 0.602823 0.700324 0.516471
744 2 0.734574 0.608798 0.534379
770 2 0.948788 0.685006 0.495973
299 1 0.795814 0.659675 0.491372
267 1 0.0920893 0.791336 0.498635
227 1 0.238456 0.876867 0.479948
251 1 0.0949831 0.947284 0.501527
278 1 0.205677 0.849887 0.522021
741 2 0.298256 0.733803 0.482869
248 1 0.400342 0.734883 0.522612
752 2 0.405603 0.91458 0.49769
249 1 0.481133 0.757983 0.484083
228 1 0.493545 0.0438962 0.492894
254 1 0.620136 0.824368 0.480408
772 2 0.552306 0.854037 0.512269
774 2 0.779595 0.86681 0.502682
701 2 0.924116 0.886255 0.492216
750 2 0.981142 0.809278 0.52336
252 1 0.200994 0.0907281 0.565638
321 1 0.0303322 0.137001 0.586594
291 1 0.130273 0.231681 0.570532
256 1 0.00102766 0.163803 0.541958
309 1 0.428495 0.0403617 0.53878
757 2 0.29087 0.151558 0.536815
758 2 0.426431 0.173246 0.564849
282 1 0.441692 0.996861 0.581239
756 2 0.289957 0.238895 0.568812
310 1 0.559177 0.0871268 0.558796
754 2 0.731356 0.976798 0.576648
314 1 0.683442 0.119955 0.539693
730 2 0.824632 0.999867 0.545226
780 2 0.861077 0.131731 0.566593
290 1 0.79883 0.256802 0.557112
292 1 0.197131 0.410532 0.566699
765 2 0.0634522 0.324374 0.550612
763 2 0.391359 0.433868 0.515982
263 1 0.504209 0.442094 0.550827
788 2 0.37495 0.341555 0.550169
268 1 0.50399 0.346887 0.588717
284 1 0.673713 0.251878 0.528445
764 2 0.543503 0.283008 0.553671
294 1 0.658958 0.420585 0.545866
260 1 0.886078 0.273066 0.526464
789 2 0.815132 0.384629 0.582159
790 2 0.802363 0.422441 0.535641
791 2 0.953817 0.418796 0.560899
776 2 0.952141 0.266655 0.571775
298 1 0.0484875 0.588622 0.580694
287 1 0.0694134 0.490298 0.544068
793 2 0.185352 0.758238 0.571362
293 1 0.204336 0.608345 0.5575
817 2 0.179718 0.521279 0.597979
792 2 0.345834 0.505111 0.560826
253 1 0.353452 0.695341 0.557052
768 2 0.472527 0.590716 0.566451
219 1 0.60487 0.581493 0.551201
769 2 0.685753 0.74684 0.550456
773 2 0.618881 0.660785 0.584888
319 1 0.602014 0.477778 0.583463
274 1 0.859159 0.690814 0.531591
295 1 0.0078812 0.620594 0.54384
794 2 0.805761 0.535881 0.567962
366 1 0.783259 0.698753 0.575379
822 2 0.129681 0.901918 0.553274
766 2 0.11514 0.738576 0.540176
288 1 0.4282 0.898638 0.546998
258 1 0.275191 0.985022 0.544272
283 1 0.291416 0.845802 0.557821
277 1 0.248509 0.942784 0.587278
303 1 0.530878 0.769177 0.551737
285 1 0.679844 0.811206 0.588544
308 1 0.57895 0.918693 0.569973
279 1 0.690432 0.875076 0.530482
226 1 0.83272 0.839417 0.547189
297 1 0.826038 0.848282 0.584573
771 2 0.00507852 0.00883174 0.551695
775 2 0.969127 0.786938 0.562003
800 2 0.896099 0.989926 0.584894
302 1 0.0971358 0.122598 0.631707
276 1 0.191014 0.14703 0.604099
833 2 0.273246 0.22909 0.630486
803 2 0.227067 0.998761 0.622034
808 2 0.510076 0.134222 0.591817
307 1 0.365348 0.127002 0.608805
335 1 0.495737 0.098533 0.62894
783 2 0.613449 0.031074 0.606723
289 1 0.655094 0.163368 0.581151
804 2 0.623846 0.18449 0.631907
281 1 0.943382 0.0333641 0.620187
849 2 0.846552 0.0519234 0.652971
784 2 0.923305 0.209786 0.623331
785 2 0.794532 0.171509 0.600366
824 2 0.780308 0.0264197 0.610993
286 1 0.0661728 0.405841 0.600495
781 2 0.0737703 0.262704 0.614281
832 2 0.196662 0.309494 0.60169
801 2 0.136263 0.424968 0.638956
333 1 0.369516 0.307646 0.609071
782 2 0.488697 0.423884 0.635892
787 2 0.31332 0.459336 0.594411
331 1 0.319751 0.434566 0.632936
807 2 0.407811 0.294201 0.647665
809 2 0.669951 0.341829 0.585161
834 2 0.657038 0.413697 0.628593
313 1 0.739842 0.512803 0.601899
339 1 0.541159 0.306134 0.622862
306 1 0.784272 0.309383 0.6158
311 1 0.919993 0.374149 0.606681
315 1 0.824618 0.456133 0.638192
795 2 0.0287287 0.567197 0.626633
342 1 0.149065 0.657009 0.614039
322 1 0.287037 0.664305 0.592223
347 1 0.295558 0.601093 0.629536
323 1 0.428962 0.57262 0.605891
818 2 0.48326 0.722066 0.610529
338 1 0.570996 0.58786 0.619699
813 2 0.702798 0.583005 0.638568
324 1 0.654208 0.733285 0.622656
343 1 0.584365 0.684008 0.654768
814 2 0.990118 0.71299 0.599147
320 1 0.921336 0.547288 0.59948
349 1 0.853124 0.678926 0.620343
796 2 0.104912 0.996185 0.593475
798 2 0.218508 0.801441 0.608555
271 1 0.0715909 0.8501 0.592379
327 1 0.192259 0.883745 0.650352
326 1 0.0699331 0.955251 0.628849
821 2 0.0863034 0.786689 0.626771
777 2 0.346703 0.766936 0.629192
348 1 0.366527 0.824076 0.590193
329 1 0.397377 0.931181 0.617717
823 2 0.520237 0.856016 0.603273
819 2 0.489676 0.827185 0.642652
280 1 0.949696 0.858584 0.610706
325 1 0.788269 0.875179 0.633646
332 1 0.201394 0.128444 0.659518
851 2 0.22617 0.225969 0.709719
802 2 0.00734427 0.0452754 0.682375
871 2 0.0814507 0.191498 0.688709
352 1 0.142252 0.0404428 0.703268
358 1 0.344029 0.122877 0.65175
872 2 0.278298 0.0998935 0.690884
334 1 0.420627 0.0639964 0.682704
353 1 0.399974 0.216465 0.690558
304 1 0.672014 0.0547514 0.653176
835 2 0.521254 0.186595 0.663201
301 1 0.59651 0.0752423 0.686878
826 2 0.774073 0.239695 0.649074
360 1 0.655158 0.228847 0.681105
376 1 0.754583 0.122257 0.692626
305 1 0.93551 0.173477 0.67383
846 2 0.882353 0.997032 0.702655
810 2 0.0511755 0.281394 0.652145
829 2 0.218764 0.309409 0.661628
806 2 0.223295 0.467785 0.676628
357 1 0.0237853 0.362411 0.691474
812 2 0.132218 0.492221 0.709165
362 1 0.0250111 0.525863 0.672231
805 2 0.164802 0.35393 0.704476
312 1 0.431881 0.470118 0.669495
364 1 0.340017 0.351152 0.677545
359 1 0.494701 0.345528 0.687172
330 1 0.573288 0.34758 0.656823
365 1 0.701674 0.401161 0.662725
340 1 0.802233 0.276491 0.687527
840 2 0.893756 0.331582 0.660981
816 2 0.987084 0.436207 0.640686
811 2 0.890609 0.460753 0.677518
797 2 0.168777 0.582639 0.65317
815 2 0.0143614 0.666682 0.658449
341 1 0.0821519 0.638032 0.693041
328 1 0.206318 0.721525 0.648431
317 1 0.417606 0.634201 0.652459
316 1 0.485888 0.601204 0.688244
862 2 0.286312 0.596461 0.680892
837 2 0.589166 0.517889 0.660827
345 1 0.644872 0.667412 0.691835
845 2 0.758051 0.738625 0.659032
844 2 0.615641 0.507885 0.702561
839 2 0.741463 0.561308 0.679504
860 2 0.877876 0.575382 0.651264
836 2 0.964281 0.749792 0.694862
848 2 0.892234 0.622805 0.691852
847 2 0.234467 0.788269 0.689454
841 2 0.132294 0.9135 0.690758
346 1 0.0636993 0.82276 0.664984
372 1 0.374631 0.953317 0.65565
842 2 0.337838 0.813748 0.666451
827 2 0.279619 0.958169 0.695953
873 2 0.439627 0.902825 0.691816
350 1 0.656877 0.851323 0.650633
843 2 0.504394 0.772676 0.679142
374 1 0.532459 0.978193 0.659453
375 1 0.714918 0.828717 0.693438
850 2 0.757669 0.961141 0.677665
820 2 0.954837 0.942541 0.658166
825 2 0.908277 0.791008 0.655917
865 2 0.983511 0.884178 0.699238
852 2 0.134722 0.0577975 0.737963
881 2 0.136786 0.241034 0.74699
354 1 0.479025 0.0257608 0.717626
377 1 0.360978 0.102441 0.72428
854 2 0.286214 0.136198 0.757532
397 1 0.318051 0.9653 0.748879
909 2 0.570819 0.0990481 0.759257
859 2 0.666771 0.0603072 0.723594
864 2 0.538249 0.173018 0.71262
390 1 0.710917 0.234159 0.721247
414 1 0.590905 0.243589 0.744074
855 2 0.791889 0.0955718 0.743651
830 2 0.939772 0.109377 0.720587
371 1 0.890574 0.983074 0.750378
876 2 0.0181082 0.251186 0.718556
416 1 0.0101651 0.489399 0.748506
863 2 0.0741024 0.373273 0.736928
861 2 0.969118 0.494892 0.713274
786 2 0.319676 0.366201 0.712046
318 1 0.433579 0.454094 0.71318
389 1 0.406534 0.262516 0.737617
369 1 0.277014 0.383755 0.747929
400 1 0.370128 0.500713 0.754921
361 1 0.747276 0.422394 0.700475
370 1 0.602415 0.3462 0.716169
410 1 0.516468 0.418533 0.744738
356 1 0.86169 0.271944 0.741784
351 1 0.907152 0.363907 0.714526
386 1 0.865456 0.446837 0.76287
831 2 0.181549 0.507296 0.751699
368 1 0.192 0.62264 0.725446
891 2 0.995543 0.653603 0.725919
866 2 0.211316 0.685483 0.760155
838 2 0.380651 0.73654 0.700271
828 2 0.340523 0.562162 0.713969
874 2 0.537539 0.599694 0.729901
898 2 0.426049 0.68725 0.741954
336 1 0.700826 0.487303 0.742917
868 2 0.554057 0.58725 0.767215
404 1 0.633667 0.701994 0.756119
344 1 0.815221 0.727338 0.71258
858 2 0.883814 0.583342 0.745461
870 2 0.750774 0.601045 0.723949
895 2 0.780999 0.659555 0.760536
886 2 0.206324 0.929007 0.725224
867 2 0.0980217 0.785422 0.7112
367 1 0.0310194 0.945168 0.738326
900 2 0.180511 0.906714 0.765001
398 1 0.954032 0.893724 0.776879
424 1 0.0708723 0.759038 0.75001
373 1 0.245901 0.764005 0.72654
423 1 0.388406 0.861639 0.728872
382 1 0.457803 0.0138241 0.765527
355 1 0.611666 0.926363 0.711064
379 1 0.559962 0.89789 0.75993
337 1 0.582243 0.762057 0.718903
869 2 0.696895 0.958517 0.75562
422 1 0.724068 0.778963 0.73533
387 1 0.944129 0.821116 0.731386
875 2 0.774533 0.907598 0.724114
473 1 0.815934 0.85374 0.760358
435 1 0.0774925 0.250956 0.783719
877 2 0.168753 0.060762 0.777453
413 1 0.172772 0.17176 0.810318
896 2 0.000506447 0.0605396 0.765474
882 2 0.429285 0.172123 0.769209
857 2 0.263514 0.241628 0.789872
892 2 0.309761 0.0925661 0.795964
853 2 0.705901 0.175036 0.77436
924 2 0.565814 0.173234 0.791233
949 2 0.627029 0.00711689 0.800116
920 2 0.810638 0.134034 0.815796
405 1 0.967607 0.136979 0.811518
401 1 0.929958 0.981098 0.807806
425 1 0.800775 0.00889479 0.780794
879 2 0.866294 0.161009 0.774585
381 1 0.137195 0.39894 0.774635
407 1 0.0100811 0.322327 0.819524
412 1 0.185713 0.360342 0.821689
393 1 0.270235 0.42998 0.785863
887 2 0.484722 0.488 0.786028
884 2 0.425563 0.342642 0.781115
443 1 0.335809 0.352887 0.823371
889 2 0.715896 0.329982 0.755597
930 2 0.678351 0.254884 0.803072
394 1 0.602421 0.436299 0.807019
941 2 0.474843 0.278722 0.816789
964 2 0.587773 0.31461 0.773535
429 1 0.45969 0.436788 0.819472
385 1 0.827596 0.328889 0.792072
384 1 0.966908 0.341589 0.762173
406 1 0.940647 0.43639 0.810252
411 1 0.0790567 0.473463 0.813792
363 1 0.0702005 0.581168 0.778102
408 1 0.211064 0.584583 0.792806
917 2 0.130077 0.701251 0.795472
893 2 0.373267 0.646365 0.775227
919 2 0.523863 0.744341 0.776341
449 1 0.301497 0.687292 0.805785
939 2 0.438483 0.615026 0.806223
391 1 0.720848 0.45769 0.780869
415 1 0.66168 0.609382 0.79764
935 2 0.814836 0.589587 0.821877
885 2 0.905643 0.739778 0.769725
890 2 0.897047 0.580493 0.787323
856 2 0.805803 0.714298 0.804981
392 1 0.975529 0.695657 0.803056
910 2 0.0777134 0.860867 0.796238
383 1 0.229125 0.826748 0.803654
897 2 0.101062 0.00887333 0.812327
499 1 0.284977 0.956081 0.829274
388 1 0.467209 0.996551 0.807716
430 1 0.375845 0.794082 0.770647
378 1 0.334606 0.929638 0.784911
923 2 0.431523 0.815378 0.81112
380 1 0.569076 0.860834 0.797831
396 1 0.696143 0.802564 0.783594
399 1 0.580292 0.726461 0.822055
899 2 0.714497 0.836769 0.829679
420 1 0.832682 0.862996 0.797361
421 1 0.772889 0.994221 0.83115
880 2 0.0310637 0.152066 0.842991
908 2 0.108431 0.100532 0.872189
937 2 0.159222 0.249721 0.843348
431 1 0.232996 0.106102 0.841935
427 1 0.369768 0.13711 0.881245
883 2 0.578545 0.107597 0.827819
878 2 0.373475 0.152492 0.833787
409 1 0.452746 0.284729 0.857677
434 1 0.447038 0.0373177 0.852809
904 2 0.68182 0.0725362 0.854915
459 1 0.727152 0.107828 0.886292
481 1 0.536989 0.136924 0.882633
402 1 0.846805 0.0996274 0.855237
426 1 0.907678 0.226627 0.865825
950 2 0.862928 0.0408465 0.892036
418 1 0.225272 0.470919 0.853817
912 2 0.0367989 0.37605 0.862545
934 2 0.301091 0.271902 0.856451
913 2 0.344417 0.529283 0.826907
984 2 0.524686 0.42546 0.856541
460 1 0.774994 0.396924 0.822498
888 2 0.636704 0.325159 0.830813
975 2 0.739957 0.225246 0.853241
960 2 0.729823 0.367277 0.865484
944 2 0.911719 0.496598 0.84649
417 1 0.875041 0.275267 0.830226
905 2 0.885484 0.372772 0.867595
441 1 0.0783933 0.709308 0.829995
940 2 0.186991 0.586155 0.830059
901 2 0.0878422 0.523501 0.854683
902 2 0.140377 0.653186 0.883783
440 1 0.452936 0.577334 0.851673
894 2 0.305917 0.638114 0.858054
943 2 0.42616 0.729882 0.840631
458 1 0.417004 0.692299 0.883754
445 1 0.608463 0.570374 0.8378
914 2 0.557628 0.699091 0.857262
946 2 0.690106 0.656906 0.876142
915 2 0.75424 0.522751 0.859134
497 1 0.977233 0.620712 0.875719
395 1 0.758973 0.697106 0.842519
972 2 0.933475 0.672521 0.841024
945 2 0.855172 0.794566 0.872141
916 2 0.127814 0.949171 0.851283
942 2 0.290022 0.791907 0.832902
428 1 0.0215163 0.864814 0.83386
452 1 0.0361515 0.753163 0.864185
921 2 0.186202 0.827733 0.869649
948 2 0.268696 0.982252 0.867726
403 1 0.413987 0.895127 0.844197
925 2 0.335769 0.801775 0.869184
450 1 0.552284 0.938485 0.834352
472 1 0.686483 0.832439 0.86538
991 2 0.515208 0.844838 0.866743
922 2 0.959062 0.00133265 0.849203
931 2 0.823707 0.939783 0.865964
911 2 0.873413 0.816959 0.833629
451 1 0.966411 0.90493 0.881874
453 1 0.217235 0.0883128 0.902804
457 1 0.0788753 0.096058 0.915821
932 2 0.0656494 0.263364 0.891388
433 1 0.190185 0.16299 0.942117
446 1 0.357818 0.128837 0.921532
479 1 0.617644 0.178587 0.915397
20 1 0.691725 0.0246435 0.917619
954 2 0.954581 0.939554 0.922936
983 2 0.947696 0.179018 0.904243
976 2 0.792437 0.157803 0.921307