ITEM: TIMESTEP
11530
ITEM: NUMBER OF ATOMS
1000
ITEM: BOX BOUNDS pp pp pp
0.0000000000000000e+00 6.2996052494743662e+00
0.0000000000000000e+00 6.2996052494743662e+00
0.0000000000000000e+00 2.5198420997897465e+01
ITEM: ATOMS id type xs ys zs
46 1 0.142351 1.00068 0.0400198
486 1 0.0378358 0.0852396 0.0581318
13 1 0.216447 0.165508 0.0121861
28 1 0.297683 0.131941 0.0482761
526 2 0.384994 0.273835 0.0641197
17 1 0.453453 0.20735 0.0350488
498 1 0.447774 0.0141885 0.034677
454 1 0.292593 0.315123 0.0268779
529 2 0.611371 0.0756709 0.0510133
573 2 0.585865 0.227456 0.0138976
571 2 0.598425 0.0359329 0.0173189
36 1 0.715629 0.129904 0.0124405
544 2 0.889531 0.224457 0.0432977
534 2 0.789666 0.938249 0.0536582
507 2 0.909632 0.0955133 0.0261126
100 1 0.874462 0.0780074 0.0748526
16 1 0.0396653 0.169866 0.018799
528 2 0.138791 0.222027 0.0462096
510 2 0.141742 0.310171 0.0133031
987 2 0.181239 0.616072 0.0196074
927 2 0.156338 0.484979 0.991158
532 2 0.0651718 0.498372 0.0242652
489 1 0.33582 0.481147 0.022421
63 1 0.412302 0.588202 0.0341031
979 2 0.422692 0.296109 0.997519
506 2 0.571748 0.469563 0.0444521
999 2 0.663342 0.367583 0.0204977
982 2 0.69062 0.229347 0.0447873
512 2 0.472122 0.354643 0.0403263
477 1 0.987889 0.333305 0.999376
485 1 0.841166 0.384114 0.0234985
977 2 0.977174 0.354321 0.0379866
73 1 0.766582 0.409459 0.0558674
963 2 0.318631 0.678628 0.0191082
86 1 0.0180696 0.625145 0.0390332
514 2 0.459484 0.765731 0.023429
980 2 0.278259 0.575676 0.98853
989 2 0.727427 0.525793 0.0329605
998 2 0.513962 0.606014 0.061967
33 1 0.712919 0.626304 0.0601325
978 2 0.46353 0.62421 0.996101
947 2 0.632387 0.710156 0.0273042
961 2 0.901486 0.525118 0.026236
545 2 0.862008 0.674862 0.0405825
31 1 0.759134 0.662127 0.00342624
997 2 0.270421 0.720857 0.0537792
37 1 0.112047 0.754737 0.0217896
525 2 0.161299 0.872983 0.0512325
524 2 0.252843 0.851556 0.000918813
18 1 0.32026 0.882327 0.0407102
918 2 0.285659 0.0122829 0.0208059
9 1 0.429051 0.894377 0.00705851
12 1 0.552752 0.887197 0.0306422
95 1 0.738327 0.803684 0.0448051
29 1 0.748597 0.956054 0.0123194
971 2 0.595816 0.73826 0.064948
488 1 0.976061 0.819518 0.00885755
21 1 0.977903 0.806332 0.0497159
936 2 0.0441968 0.978643 0.00375264
549 2 0.937063 0.942671 0.0337525
11 1 0.125462 0.143805 0.0842064
985 2 0.104426 0.349819 0.0648138
560 2 0.325611 0.0189477 0.07512
600 2 0.548144 0.209526 0.0642581
48 1 0.41243 0.149223 0.10095
548 2 0.486978 0.0612101 0.0732602
27 1 0.779749 0.103738 0.0479321
503 2 0.570066 0.183805 0.114933
1 1 0.974481 0.116847 0.100611
565 2 0.803658 0.0990273 0.104393
598 2 0.824676 0.246949 0.112628
41 1 0.927465 0.239307 0.0797864
85 1 0.189781 0.45084 0.0382352
77 1 0.0638745 0.448204 0.103934
581 2 0.249573 0.369629 0.0677046
7 1 0.391402 0.452219 0.0602378
527 2 0.398721 0.290309 0.113517
52 1 0.281971 0.190873 0.088782
551 2 0.233055 0.475156 0.0995245
521 2 0.689413 0.170689 0.0828071
552 2 0.614525 0.355198 0.0717749
35 1 0.779978 0.294654 0.0746619
981 2 0.919411 0.451128 0.0703788
89 1 0.907986 0.362428 0.115622
65 1 0.23428 0.560269 0.0632252
957 2 0.0522997 0.538526 0.0703734
10 1 0.00208163 0.664376 0.111393
517 2 0.132637 0.582562 0.10398
70 1 0.107437 0.718397 0.0586969
64 1 0.894466 0.533154 0.113832
519 2 0.535763 0.623412 0.10288
547 2 0.340015 0.572574 0.108126
56 1 0.373933 0.625714 0.06895
523 2 0.234373 0.72475 0.0912379
511 2 0.630358 0.50342 0.0775927
15 1 0.693386 0.686469 0.0983733
531 2 0.412433 0.546931 0.142071
537 2 0.378204 0.741122 0.0942038
520 2 0.834503 0.588077 0.0824553
40 1 0.963915 0.677804 0.0755049
533 2 0.767746 0.431954 0.0967894
967 2 0.999226 0.973726 0.0798606
44 1 0.0364658 0.922986 0.115234
546 2 0.0869011 0.796038 0.0914924
57 1 0.1468 0.98197 0.086937
39 1 0.924462 0.83998 0.0913863
23 1 0.265134 0.879773 0.0907353
543 2 0.434464 0.959665 0.111337
559 2 0.411647 0.868908 0.0698835
516 2 0.620089 0.90196 0.0667358
96 1 0.624783 0.0271467 0.0949135
577 2 0.519385 0.801771 0.0970338
502 2 0.815489 0.745781 0.0748108
575 2 0.784142 0.938288 0.0915332
80 1 0.98375 0.172283 0.143675
566 2 0.129072 0.0154992 0.140042
82 1 0.110386 0.15695 0.123544
105 1 0.0384234 0.0170669 0.179982
580 2 0.990029 0.18688 0.181367
101 1 0.275676 0.209738 0.132373
555 2 0.250517 0.0771114 0.119295
599 2 0.527867 0.153844 0.156965
93 1 0.333196 0.160561 0.173728
92 1 0.388194 0.108589 0.139048
99 1 0.670199 0.102532 0.171735
79 1 0.663413 0.334158 0.108757
34 1 0.717432 0.181543 0.141763
59 1 0.753281 0.995247 0.137008
554 2 0.897753 0.0764117 0.166998
590 2 0.04364 0.277891 0.102116
582 2 0.916406 0.438554 0.15004
83 1 0.193624 0.296262 0.101042
564 2 0.0687215 0.332411 0.135966
595 2 0.084386 0.457686 0.166264
125 1 0.162689 0.504684 0.135484
538 2 0.34604 0.418715 0.131724
561 2 0.286395 0.305347 0.164996
78 1 0.411353 0.277413 0.149564
556 2 0.410762 0.412421 0.179943
558 2 0.489469 0.478226 0.0949962
50 1 0.628656 0.494744 0.119974
62 1 0.497963 0.391461 0.131231
26 1 0.866047 0.259586 0.149568
604 2 0.736746 0.336886 0.143655
94 1 0.779793 0.479152 0.133825
54 1 0.982593 0.374456 0.188103
84 1 0.734639 0.415516 0.176046
550 2 0.244106 0.739549 0.132566
553 2 0.112334 0.649809 0.136382
98 1 0.00110893 0.737953 0.168842
91 1 0.163222 0.600425 0.172581
38 1 0.424898 0.688405 0.127054
570 2 0.498501 0.697221 0.200272
141 1 0.279132 0.609323 0.145465
97 1 0.367742 0.736901 0.17023
509 2 0.539383 0.582565 0.149811
116 1 0.421556 0.586851 0.177462
14 1 0.609039 0.689985 0.175167
90 1 0.612437 0.735201 0.136952
66 1 0.724255 0.64051 0.132464
594 2 0.970045 0.585283 0.142496
42 1 0.00211311 0.789472 0.129944
541 2 0.108068 0.886315 0.163471
542 2 0.171045 0.883068 0.123981
53 1 0.290444 0.954898 0.151818
597 2 0.34604 0.853519 0.123056
589 2 0.457258 0.0117102 0.166967
88 1 0.486615 0.848239 0.133591
69 1 0.607774 0.94303 0.174496
539 2 0.578699 0.00502016 0.13466
139 1 0.510275 0.800504 0.174097
513 2 0.66695 0.852568 0.10616
576 2 0.921398 0.0173398 0.127327
60 1 0.930681 0.908729 0.152899
587 2 0.85443 0.815544 0.125862
540 2 0.779655 0.771002 0.154283
68 1 0.785137 0.952281 0.177501
610 2 0.0828557 0.118628 0.211573
638 2 0.286985 0.251532 0.200824
118 1 0.243011 0.102367 0.22238
74 1 0.418048 0.120567 0.209575
586 2 0.436111 0.265954 0.228099
583 2 0.166171 0.128974 0.16578
112 1 0.470761 0.244048 0.185135
76 1 0.602177 0.287435 0.146982
110 1 0.583929 0.174115 0.221049
157 1 0.561848 0.067887 0.194802
579 2 0.601298 0.0464472 0.247021
150 1 0.862389 0.27684 0.191176
109 1 0.799184 0.123894 0.192374
605 2 0.927688 0.144531 0.225287
535 2 0.0233484 0.520735 0.218795
107 1 0.127182 0.273142 0.167486
651 2 0.12091 0.386298 0.203669
128 1 0.137339 0.257539 0.246753
87 1 0.244713 0.462403 0.165324
611 2 0.269534 0.397153 0.204277
608 2 0.538162 0.356615 0.209797
557 2 0.585513 0.460064 0.170624
671 2 0.705086 0.237251 0.196151
607 2 0.686444 0.366938 0.22452
601 2 0.979025 0.33922 0.22771
81 1 0.841242 0.386895 0.21653
104 1 0.881966 0.556528 0.210433
111 1 0.999815 0.576808 0.181964
622 2 0.116257 0.690656 0.20606
606 2 0.179344 0.523464 0.206853
618 2 0.137818 0.561494 0.242164
591 2 0.210445 0.685228 0.237072
632 2 0.286482 0.637539 0.198284
142 1 0.419368 0.643252 0.231351
72 1 0.41004 0.48642 0.214286
67 1 0.565216 0.557011 0.208436
592 2 0.667823 0.536685 0.244174
635 2 0.708959 0.543916 0.198078
563 2 0.768836 0.698329 0.207229
615 2 0.841771 0.573161 0.167282
108 1 0.9578 0.699243 0.200805
122 1 0.16384 0.744047 0.172802
596 2 0.189821 0.990467 0.190302
642 2 0.0493063 0.841801 0.199199
536 2 0.332629 0.0184819 0.185807
578 2 0.268208 0.847501 0.184084
127 1 0.326337 0.936345 0.221565
613 2 0.34841 0.763477 0.214053
562 2 0.408758 0.886193 0.19334
572 2 0.629864 0.95918 0.214359
144 1 0.688454 0.814626 0.188011
593 2 0.620812 0.707427 0.222926
117 1 0.896933 0.968457 0.215298
530 2 0.858199 0.82633 0.187368
55 1 0.732419 0.103891 0.232426
648 2 0.874853 0.785076 0.232062
602 2 0.179957 0.136905 0.273284
172 1 0.0424659 0.14875 0.285867
102 1 0.0339619 0.0792939 0.250312
603 2 0.365265 0.0688503 0.246652
134 1 0.469904 0.968361 0.230722
131 1 0.48391 0.950803 0.272576
137 1 0.410661 0.26696 0.271436
124 1 0.482608 0.162031 0.25203
653 2 0.608628 0.0374171 0.283805
151 1 0.749222 0.0968739 0.274753
623 2 0.685091 0.218836 0.259202
569 2 0.987972 0.290415 0.262007
667 2 0.888362 0.165705 0.261033
652 2 0.780281 0.282043 0.285669
140 1 0.148979 0.407638 0.247284
145 1 0.258533 0.275402 0.281714
166 1 0.14988 0.569474 0.287435
636 2 0.246626 0.465167 0.274929
626 2 0.294295 0.224742 0.243249
675 2 0.30631 0.374474 0.247644
612 2 0.506437 0.3123 0.301951
138 1 0.568679 0.303488 0.24315
637 2 0.64 0.360971 0.277223
585 2 0.812898 0.248244 0.22998
634 2 0.832159 0.497534 0.24304
135 1 0.00609751 0.445453 0.26314
120 1 0.0421783 0.757623 0.235154
624 2 0.273776 0.663885 0.273077
620 2 0.0284159 0.653149 0.303686
617 2 0.301354 0.543107 0.233966
146 1 0.408714 0.55043 0.262017
103 1 0.355948 0.766656 0.253213
164 1 0.482952 0.695716 0.282804
114 1 0.465073 0.411397 0.27295
115 1 0.587094 0.664727 0.254531
670 2 0.508894 0.443655 0.238833
123 1 0.5838 0.511342 0.2784
665 2 0.816522 0.653765 0.248825
609 2 0.0754369 0.73932 0.271627
169 1 0.974353 0.603787 0.247783
629 2 0.885893 0.707767 0.283449
567 2 0.0424653 0.965301 0.222607
616 2 0.167838 0.843146 0.2195
121 1 0.0622295 0.892766 0.254454
672 2 0.1925 0.823214 0.258888
568 2 0.16721 -0.00308972 0.24453
153 1 0.312901 0.927444 0.256554
149 1 0.506157 0.810974 0.232821
147 1 0.476163 0.851097 0.300918
113 1 0.731215 0.862673 0.226372
647 2 0.617034 0.879943 0.255403
160 1 0.753428 0.800573 0.262008
588 2 0.725803 0.980658 0.254173
175 1 0.990638 0.962887 0.286478
614 2 0.866594 0.0128359 0.265922
621 2 0.897445 0.861111 0.273618
646 2 0.23903 0.130023 0.312731
182 1 0.143397 0.118769 0.344197
680 2 0.032205 0.0552845 0.318251
163 1 0.321282 0.0491252 0.282848
197 1 0.41057 0.199408 0.313023
183 1 0.47212 0.0939862 0.283698
640 2 0.571047 0.168876 0.308954
658 2 0.59928 0.0481806 0.332955
627 2 0.816936 0.0613122 0.34615
628 2 0.735969 0.0386233 0.313162
119 1 0.952392 0.260486 0.300141
126 1 0.753125 0.172 0.326215
180 1 0.879438 0.109391 0.298443
185 1 0.978843 0.190301 0.339796
661 2 0.17083 0.421229 0.318251
106 1 0.124208 0.260139 0.312632
584 2 0.0409548 0.457035 0.30092
687 2 0.986892 0.336913 0.337707
201 1 0.326646 0.36017 0.312126
650 2 0.502721 0.324054 0.339155
657 2 0.240712 0.273034 0.336672
167 1 0.368171 0.467727 0.338834
136 1 0.390822 0.279361 0.363404
662 2 0.613494 0.202866 0.347251
158 1 0.671996 0.309984 0.315417
129 1 0.732469 0.476413 0.285575
217 1 0.650306 0.368248 0.352954
133 1 0.818522 0.251324 0.355258
161 1 0.832738 0.352972 0.25482
699 2 0.838613 0.354944 0.316482
666 2 0.910429 0.519112 0.337283
194 1 0.731318 0.450076 0.326786
645 2 0.238836 0.462919 0.355858
641 2 0.183924 0.699922 0.310527
191 1 0.129766 0.538744 0.337634
720 2 0.2738 0.632151 0.344512
168 1 0.377266 0.536535 0.300563
619 2 0.597585 0.613153 0.306896
171 1 0.443242 0.61798 0.338722
143 1 0.500998 0.480513 0.356399
697 2 0.340923 0.708249 0.306176
630 2 0.732154 0.631165 0.28379
148 1 0.552071 0.438341 0.316671
198 1 0.580968 0.601713 0.344799
643 2 0.644725 0.502145 0.3708
170 1 0.735105 0.615415 0.326334
130 1 0.888912 0.523969 0.283614
649 2 0.866113 0.679608 0.318633
176 1 0.154385 0.979821 0.284952
700 2 0.0223114 0.911979 0.333255
207 1 0.192043 0.817713 0.33447
247 1 0.120687 0.851951 0.300127
177 1 0.389377 0.00916719 0.319105
696 2 0.309728 0.892775 0.301269
231 1 0.184454 0.968679 0.322825
691 2 0.367295 0.812354 0.335036
673 2 0.558789 0.756256 0.329459
154 1 0.624228 0.774907 0.291619
190 1 0.61312 0.898378 0.311233
152 1 0.913029 0.837338 0.315773
625 2 0.741292 0.909939 0.289717
639 2 0.778557 0.772656 0.298035
196 1 0.0116303 0.751858 0.33634
155 1 0.889247 0.987876 0.317737
195 1 0.7019 0.761956 0.33987
677 2 0.0248592 0.10985 0.394077
211 1 0.112249 0.188648 0.424605
656 2 0.0621553 0.2417 0.368079
706 2 0.327034 0.130015 0.358462
678 2 0.4732 0.115361 0.343009
702 2 0.31919 0.933433 0.359372
187 1 0.508819 0.143924 0.402755
188 1 0.208331 0.0804368 0.385802
238 1 0.438759 0.0318314 0.376914
655 2 0.724776 0.904817 0.335313
633 2 0.671354 0.0791642 0.414024
698 2 0.600251 -0.0027174 0.37608
159 1 0.797107 0.994495 0.383436
679 2 0.994607 0.0285261 0.359205
179 1 0.883265 0.123206 0.379655
736 2 0.212839 0.221013 0.370982
213 1 0.320685 0.16639 0.399015
156 1 0.0859696 0.404644 0.362456
162 1 0.456004 0.278745 0.41243
669 2 0.440059 0.3958 0.386228
132 1 0.275778 0.373329 0.386651
686 2 0.710292 0.133001 0.376285
244 1 0.781869 0.461568 0.376713
692 2 0.565778 0.273711 0.380114
664 2 0.715739 0.300059 0.392428
718 2 0.642499 0.471861 0.407241
165 1 0.878549 0.284028 0.385507
184 1 0.973064 0.274151 0.413182
693 2 0.927009 0.400477 0.36983
216 1 0.953214 0.582832 0.376658
220 1 0.166706 0.55857 0.384206
199 1 0.147469 0.677786 0.36079
205 1 0.0744293 0.68271 0.397655
225 1 0.197387 0.822151 0.375804
631 2 0.356745 0.598276 0.375429
221 1 0.311077 0.732676 0.38409
725 2 0.415567 0.704051 0.407027
173 1 0.537534 0.612532 0.391981
676 2 0.67692 0.678153 0.369803
644 2 0.809458 0.595841 0.36003
186 1 0.0124037 0.437416 0.400227
275 1 0.845569 0.534329 0.410475
674 2 0.848953 0.744478 0.350498
682 2 0.139517 0.952883 0.361259
660 2 0.0154331 0.845517 0.365589
178 1 0.497763 0.907607 0.345454
223 1 0.45983 0.738524 0.368425
202 1 0.474453 0.880677 0.388538
174 1 0.631776 0.758087 0.413757
724 2 0.591219 0.818037 0.373461
690 2 0.946817 0.976281 0.396198
654 2 0.887302 0.913227 0.357784
200 1 0.909694 0.808179 0.390166
719 2 0.766273 0.842578 0.371137
236 1 0.10198 0.00875045 0.426792
261 1 0.217541 0.310611 0.427046
235 1 0.252363 0.0760401 0.425602
232 1 0.398446 0.0813471 0.42796
214 1 0.44176 0.9533 0.45249
684 2 0.587515 0.112752 0.442767
233 1 0.449225 0.079747 0.470272
705 2 0.729007 0.180817 0.450563
717 2 0.698281 0.00663342 0.446771
716 2 0.631403 0.233019 0.420433
729 2 0.595729 0.967346 0.475976
189 1 0.810826 0.187013 0.414412
715 2 0.837629 0.0708781 0.456295
659 2 0.877939 0.239854 0.453213
181 1 0.950339 0.125755 0.425974
321 1 0.991105 0.096601 0.458587
710 2 0.130118 0.334622 0.397236
242 1 0.346136 0.386674 0.422038
265 1 0.0513926 0.239097 0.457462
688 2 0.302558 0.519762 0.405211
714 2 0.397455 0.414683 0.459879
239 1 0.512426 0.391489 0.435619
689 2 0.67367 0.334816 0.454691
739 2 0.55896 0.383639 0.481081
240 1 0.732862 0.452068 0.442693
734 2 0.591394 0.170776 0.476995
192 1 0.021762 0.379363 0.438555
709 2 0.867215 0.371819 0.42554
215 1 0.869105 0.374658 0.475012
203 1 0.220233 0.617073 0.422893
745 2 0.0557083 0.760814 0.437277
222 1 0.0245578 0.544574 0.430886
296 1 0.151046 0.446263 0.424027
695 2 0.113256 0.60642 0.455598
193 1 0.469291 0.506618 0.415707
237 1 0.36374 0.620468 0.434594
204 1 0.532317 0.658825 0.430116
722 2 0.389007 0.74264 0.454454
723 2 0.680775 0.612961 0.415919
721 2 0.581116 0.535148 0.44735
663 2 0.747352 0.598512 0.465176
737 2 0.804463 0.686642 0.392918
767 2 0.883937 0.509834 0.456011
246 1 0.940882 0.66054 0.414283
685 2 0.730951 0.461546 0.479285
774 2 0.806425 0.73222 0.472527
212 1 0.241597 0.947437 0.399948
257 1 0.11647 0.883405 0.463037
681 2 0.0687369 0.893761 0.400201
755 2 0.944492 0.829319 0.470975
746 2 0.185641 0.757799 0.415193
707 2 0.374582 0.881093 0.410846
208 1 0.489786 0.81934 0.432886
708 2 0.299869 0.927228 0.456337
683 2 0.591757 0.944217 0.416452
703 2 0.785612 0.870051 0.409451
228 1 0.641095 0.849174 0.446379
229 1 0.764201 0.721324 0.433421
209 1 0.908395 0.815912 0.433925
224 1 0.810124 0.901949 0.459781
749 2 0.823366 0.0257592 0.419931
251 1 0.974108 0.962234 0.442344
732 2 0.248077 0.337602 0.482973
753 2 0.329064 0.157894 0.488237
735 2 0.191668 0.141424 0.463163
763 2 0.129569 0.289816 0.514277
264 1 0.526294 0.0877738 0.508656
731 2 0.35725 0.0719069 0.519185
778 2 0.591195 0.26758 0.509985
255 1 0.433143 0.980148 0.495476
804 2 0.688838 0.161518 0.504904
711 2 0.00368743 0.2228 0.497164
250 1 0.750818 0.00991256 0.493821
284 1 0.17792 0.132063 0.504103
210 1 0.864704 0.132639 0.491512
759 2 0.731627 0.256185 0.533344
260 1 0.893445 0.300491 0.513291
272 1 0.124064 0.395356 0.468727
262 1 0.00160363 0.535592 0.477269
765 2 0.0104099 0.400789 0.490255
747 2 0.211409 0.444403 0.51982
742 2 0.331629 0.238652 0.522381
712 2 0.254712 0.492696 0.450635
234 1 0.349494 0.262168 0.449299
738 2 0.470819 0.241848 0.488708
792 2 0.332557 0.456698 0.49685
259 1 0.437937 0.396234 0.51996
230 1 0.730399 0.325158 0.498742
779 2 0.450845 0.558878 0.467365
219 1 0.623978 0.450726 0.517989
740 2 0.869491 0.467561 0.521697
761 2 0.793197 0.37364 0.548155
206 1 0.95121 0.661284 0.456667
762 2 0.02242 0.513154 0.524254
273 1 0.0552715 0.643666 0.53708
267 1 0.139769 0.584118 0.49901
766 2 0.212836 0.719588 0.497541
713 2 0.300188 0.616179 0.471992
218 1 0.491256 0.680252 0.492223
269 1 0.458994 0.541901 0.505835
744 2 0.74824 0.529959 0.512564
694 2 0.589743 0.538717 0.484489
748 2 0.621566 0.610041 0.517716
300 1 0.7628 0.690567 0.506243
245 1 0.874981 0.568032 0.49335
314 1 0.81135 0.656935 0.542694
780 2 0.170994 0.986509 0.52213
278 1 0.0846478 0.753796 0.478921
726 2 0.121689 0.0235624 0.478913
727 2 0.511291 0.837288 0.469059
741 2 0.246307 0.783231 0.4617
266 1 0.282695 0.886094 0.529083
733 2 0.277139 0.00930895 0.492614
227 1 0.361224 0.833736 0.493136
279 1 0.543109 0.84089 0.508093
668 2 0.618664 0.721228 0.470238
243 1 0.843632 0.919376 0.521935
772 2 0.722616 0.833586 0.49368
823 2 0.639674 0.962561 0.512261
308 1 0.762536 0.0793605 0.532926
701 2 0.990743 0.681815 0.49761
799 2 0.923532 0.988628 0.483821
770 2 0.934316 0.757754 0.529106
793 2 0.0159678 0.894909 0.499912
287 1 0.26004 0.0572121 0.547779
256 1 0.105586 0.0502928 0.555631
788 2 0.181678 0.268042 0.585382
757 2 0.185263 0.198718 0.542848
802 2 0.190094 0.0563564 0.592282
310 1 0.319542 0.18955 0.578941
809 2 0.490918 0.0820825 0.558077
289 1 0.471161 0.224396 0.534189
277 1 0.61234 0.25246 0.57208
294 1 0.771698 0.150338 0.564474
789 2 0.655315 0.0492677 0.567955
824 2 0.618474 0.168859 0.53935
290 1 0.0297722 0.0701008 0.512114
791 2 0.0363799 0.214446 0.546346
280 1 0.905582 0.0874785 0.548623
298 1 0.215744 0.496611 0.573524
286 1 0.00153311 0.30075 0.589798
295 1 0.132102 0.368034 0.547875
299 1 0.0609202 0.517957 0.565107
728 2 0.285655 0.360825 0.544854
764 2 0.423447 0.334349 0.561949
771 2 0.303434 0.224114 0.616396
270 1 0.583227 0.350724 0.545146
285 1 0.501811 0.508155 0.555381
366 1 0.698363 0.510571 0.555298
790 2 0.891393 0.247892 0.555132
274 1 0.980135 0.383101 0.541409
320 1 0.734007 0.320868 0.579221
315 1 0.903021 0.411524 0.571589
775 2 0.207868 0.592122 0.536472
797 2 0.126491 0.681512 0.570465
249 1 0.337824 0.612977 0.516913
263 1 0.340167 0.503964 0.548847
293 1 0.271396 0.636044 0.569134
248 1 0.397798 0.559429 0.588324
769 2 0.423611 0.66557 0.556483
254 1 0.678303 0.657888 0.556624
226 1 0.623141 0.563789 0.58639
783 2 0.681007 0.801885 0.572506
241 1 0.906351 0.57699 0.564358
750 2 0.794159 0.666855 0.586714
754 2 0.0924236 0.786778 0.520423
297 1 0.972069 0.672043 0.58859
752 2 0.212756 0.869284 0.492291
751 2 0.147178 0.871781 0.548958
798 2 0.249342 0.765013 0.544129
796 2 0.321723 0.959009 0.571495
743 2 0.390917 0.821113 0.572124
258 1 0.409819 0.791079 0.533084
348 1 0.474831 0.948114 0.57801
309 1 0.453017 0.936145 0.538291
704 2 0.732031 0.808225 0.535511
322 1 0.566914 0.758159 0.542925
282 1 0.599883 0.924211 0.546157
306 1 0.781885 0.936249 0.559238
730 2 0.0255352 0.947456 0.536424
350 1 0.848136 0.823555 0.581014
291 1 0.119948 0.23106 0.62861
302 1 0.0701009 0.0281396 0.615515
760 2 0.379874 0.046898 0.595515
758 2 0.450814 0.947492 0.624404
756 2 0.317408 0.0704464 0.629881
372 1 0.49796 0.134935 0.63295
335 1 0.596809 0.245508 0.613407
311 1 0.741025 0.24127 0.621755
784 2 0.786676 0.105334 0.603115
776 2 0.903985 0.199951 0.604253
781 2 0.026595 0.126899 0.58864
305 1 0.833475 0.120456 0.642805
271 1 0.00954678 0.989898 0.664544
850 2 0.898268 0.000805581 0.619911
349 1 0.135506 0.420449 0.607495
817 2 0.987374 0.320514 0.634607
292 1 0.261572 0.456858 0.634537
832 2 0.311604 0.372842 0.594114
268 1 0.469649 0.228173 0.590363
787 2 0.294309 0.281624 0.650868
319 1 0.500664 0.437896 0.616425
834 2 0.405529 0.343181 0.629835
794 2 0.578722 0.409141 0.581471
773 2 0.77722 0.387323 0.641346
313 1 0.668298 0.451694 0.611822
365 1 0.587412 0.339862 0.648584
331 1 0.842523 0.362005 0.609479
811 2 0.941143 0.480886 0.601137
845 2 0.784053 0.507045 0.588032
816 2 0.863938 0.270104 0.667554
341 1 0.10911 0.574914 0.599198
342 1 0.397774 0.531437 0.63757
328 1 0.254275 0.634036 0.60695
814 2 0.088625 0.72828 0.610408
253 1 0.410174 0.730422 0.599328
768 2 0.538913 0.617187 0.614872
818 2 0.580209 0.719308 0.64233
317 1 0.320914 0.669108 0.642214
303 1 0.595286 0.498278 0.647437
325 1 0.726541 0.624023 0.618388
288 1 0.553947 0.709316 0.581182
795 2 0.995067 0.586586 0.626284
813 2 0.80421 0.567139 0.646824
825 2 0.880091 0.711138 0.620658
283 1 0.257471 0.795963 0.590526
800 2 0.150454 0.897227 0.604735
785 2 0.00892073 0.814534 0.555248
822 2 0.0484716 0.896765 0.637404
326 1 0.420663 0.771244 0.634015
842 2 0.311635 0.9157 0.610706
368 1 0.201031 0.787811 0.638318
826 2 0.69686 0.933493 0.656975
777 2 0.512123 0.82909 0.602683
324 1 0.63458 0.872105 0.629077
808 2 0.719155 0.944561 0.595722
374 1 0.584163 -0.00192355 0.607059
281 1 0.982965 0.961377 0.579893
843 2 0.776693 0.83813 0.617559
865 2 0.969067 0.837456 0.607036
810 2 0.985122 0.110611 0.636568
347 1 0.140115 0.0966858 0.654716
332 1 0.066058 0.117227 0.691724
829 2 0.235965 0.181359 0.673389
820 2 0.247811 0.00962521 0.678114
276 1 0.400693 0.95272 0.660974
833 2 0.392816 0.125766 0.672855
827 2 0.474467 0.0189835 0.691466
803 2 0.576891 0.0164512 0.658735
301 1 0.670696 0.0759509 0.631394
329 1 0.599078 0.131157 0.72031
846 2 0.941207 0.148264 0.671244
304 1 0.698403 0.0906839 0.68255
849 2 0.821803 0.012486 0.67234
358 1 0.761732 0.957261 0.71654
357 1 0.0893495 0.492124 0.647971
812 2 0.209332 0.499522 0.671271
807 2 0.165114 0.332704 0.65654
861 2 0.0217109 0.433121 0.690856
377 1 0.0379121 0.266321 0.674231
782 2 0.347901 0.427832 0.665045
333 1 0.438568 0.273015 0.665337
323 1 0.31108 0.305085 0.701657
837 2 0.563455 0.373121 0.708844
364 1 0.456907 0.559161 0.699357
330 1 0.587058 0.219531 0.680632
339 1 0.696796 0.343191 0.684839
376 1 0.715923 0.204967 0.659856
338 1 0.504895 0.422021 0.671448
840 2 0.907298 0.454565 0.656993
871 2 0.86598 0.392978 0.690171
801 2 0.185853 0.610907 0.64426
387 1 0.172131 0.648807 0.681856
891 2 0.013288 0.588592 0.670717
862 2 0.324295 0.629178 0.68406
867 2 0.353009 0.774098 0.68964
847 2 0.496088 0.609239 0.66157
340 1 0.718587 0.48422 0.672548
844 2 0.612741 0.54146 0.70049
343 1 0.655655 0.641836 0.675697
848 2 0.899916 0.550663 0.691594
838 2 0.804012 0.650654 0.681387
345 1 0.932629 0.459062 0.720175
875 2 0.882358 0.691548 0.713769
821 2 0.137496 0.909948 0.672254
815 2 0.072645 0.718429 0.650173
841 2 0.209793 0.863353 0.704619
855 2 0.00389162 0.838184 0.671682
836 2 0.0636574 0.730639 0.691568
396 1 0.0882704 0.972687 0.710142
252 1 0.208826 0.976437 0.641148
872 2 0.350106 0.942579 0.700353
346 1 0.274349 0.853311 0.666617
874 2 0.500164 0.70685 0.696234
839 2 0.757582 0.729425 0.645969
819 2 0.539471 0.859049 0.667523
316 1 0.622449 0.980991 0.705661
873 2 0.690014 0.808946 0.689549
860 2 0.923595 0.719518 0.661177
355 1 0.903716 0.852637 0.642188
423 1 0.816727 0.855575 0.676134
857 2 0.2667 0.313153 0.735544
876 2 0.195149 0.182409 0.717527
806 2 0.0823062 0.325193 0.753819
805 2 0.121738 0.0705248 0.744219
881 2 0.236767 0.992874 0.726511
786 2 0.325467 0.0821761 0.711667
854 2 0.368128 0.17064 0.754047
353 1 0.469687 0.0699083 0.727639
359 1 0.431098 0.373207 0.725336
334 1 0.636815 0.993201 0.74399
389 1 0.648554 0.105028 0.767705
869 2 0.753629 0.12437 0.725414
895 2 0.70707 0.993057 0.806669
853 2 0.836053 0.255809 0.743788
864 2 0.924598 0.0164751 0.697007
352 1 0.943162 0.14088 0.727757
416 1 0.16358 0.366488 0.698322
828 2 0.226956 0.450376 0.75621
361 1 0.099118 0.45495 0.73105
851 2 0.307296 0.462274 0.705125
393 1 0.357897 0.370488 0.76094
408 1 0.345431 0.576556 0.763518
835 2 0.44554 0.21857 0.704278
307 1 0.513537 0.227039 0.742561
360 1 0.525663 0.499994 0.743856
889 2 0.580094 0.354592 0.75534
414 1 0.672409 0.233806 0.743382
390 1 0.786739 0.217806 0.697129
863 2 0.0326419 0.285674 0.716726
859 2 0.778004 0.370684 0.722854
386 1 0.943415 0.588838 0.754716
930 2 0.771219 0.347738 0.766782
362 1 0.172816 0.576975 0.719017
831 2 0.200774 0.727941 0.712066
312 1 0.120503 0.604415 0.750618
318 1 0.451271 0.697015 0.735344
400 1 0.51982 0.644262 0.774106
373 1 0.335212 0.604474 0.725324
370 1 0.771267 0.50578 0.709688
893 2 0.673696 0.555543 0.740631
898 2 0.715737 0.673501 0.712217
404 1 0.776687 0.801892 0.727464
424 1 0.0205563 0.579029 0.718758
473 1 0.802394 0.678127 0.748746
344 1 0.99274 0.71516 0.776881
398 1 0.0234891 0.709771 0.737599
896 2 0.125485 0.842529 0.742016
367 1 0.230587 0.708828 0.748956
371 1 0.33754 0.812666 0.735587
886 2 0.39837 0.95813 0.744535
430 1 0.461094 0.808534 0.761365
897 2 0.261298 0.868163 0.766189
327 1 0.486187 0.870621 0.715241
909 2 0.627773 0.836908 0.756687
900 2 0.606495 0.677426 0.743353
356 1 0.891109 0.953778 0.737709
354 1 0.764063 0.92292 0.758072
379 1 0.952255 0.853618 0.709785
406 1 0.983121 0.866925 0.783047
899 2 0.894777 0.818983 0.7534
830 2 0.208554 0.204576 0.764997
910 2 0.140155 0.286446 0.788569
384 1 0.960068 0.226703 0.761686
413 1 0.120471 0.0811902 0.781208
412 1 0.22681 0.181539 0.809588
852 2 0.273998 0.0355196 0.766436
882 2 0.425599 0.0499082 0.782984
369 1 0.34069 0.231685 0.789314
941 2 0.404305 0.14922 0.815856
382 1 0.545549 0.0339941 0.81124
924 2 0.514154 0.194071 0.778569
460 1 0.759858 0.200532 0.790449
920 2 0.668421 0.134794 0.822215
880 2 0.975115 0.0833083 0.797811
877 2 0.990909 0.00864696 0.764567
879 2 0.837311 0.0733569 0.769742
922 2 0.821849 0.0988689 0.809362
990 2 0.905189 0.231269 0.798499
932 2 0.0389523 0.216601 0.817857
363 1 0.163961 0.441117 0.801512
443 1 0.35473 0.404828 0.798976
429 1 0.440098 0.387431 0.831361
884 2 0.633926 0.348855 0.792042
887 2 0.471425 0.440254 0.776267
391 1 0.627673 0.467692 0.822051
385 1 0.937462 0.388829 0.758731
381 1 0.848369 0.449294 0.785173
858 2 0.220129 0.599404 0.783285
441 1 0.0256766 0.486047 0.780622
497 1 0.944908 0.754965 0.822955
913 2 0.199721 0.648342 0.823727
917 2 0.368433 0.685433 0.791616
943 2 0.360477 0.634103 0.831116
933 2 0.490171 0.582088 0.80795
375 1 0.68292 0.688141 0.774903
410 1 0.814561 0.519337 0.753734
866 2 0.467871 0.743177 0.818311
449 1 0.590598 0.494751 0.784191
870 2 0.65587 0.711506 0.825913
885 2 0.829328 0.732245 0.789353
422 1 0.745113 0.548512 0.798135
411 1 0.913773 0.598555 0.793799
942 2 0.293028 0.799915 0.815698
392 1 0.131172 0.919617 0.77705
401 1 0.186658 0.748981 0.786081
916 2 0.0585065 0.963485 0.80704
476 1 0.256714 0.993404 0.805182
383 1 0.425181 0.866242 0.802197
923 2 0.462657 0.822579 0.859348
397 1 0.572256 0.938141 0.782483
337 1 0.585364 0.790229 0.793919
919 2 0.563717 0.890808 0.825032
856 2 0.795602 0.67396 0.828307
425 1 0.854264 0.934557 0.797088
972 2 0.734204 0.852043 0.791841
378 1 0.132718 0.0974281 0.822676
921 2 0.958946 0.069959 0.835785
388 1 0.269111 0.0454207 0.845391
949 2 0.534933 0.173296 0.850395
380 1 0.403606 0.994013 0.822988
405 1 0.69023 0.282664 0.836023
481 1 0.518839 0.0150527 0.849674
975 2 0.719506 0.300176 0.874828
499 1 0.906795 0.149042 0.871769
888 2 0.847771 0.259854 0.893904
976 2 0.820954 0.194912 0.844038
431 1 0.0698609 0.34681 0.842641
426 1 0.0712387 0.38659 0.877896
901 2 0.288873 0.489602 0.828839
878 2 0.201189 0.207139 0.844399
892 2 0.535683 0.252351 0.819216
984 2 0.314767 0.291898 0.826109
445 1 0.438236 0.372798 0.869444
418 1 0.224033 0.411122 0.858566
440 1 0.363724 0.220909 0.855918
883 2 0.749481 0.40953 0.852152
935 2 0.595724 0.376381 0.853624
960 2 0.621666 0.483017 0.879954
462 1 0.572151 0.280249 0.895112
351 1 0.018268 0.384006 0.807239
964 2 0.768905 0.38239 0.811032
417 1 0.905077 0.339981 0.828712
944 2 0.858421 0.497719 0.825708
966 2 0.835427 0.416206 0.888343
940 2 0.0605634 0.579958 0.839378
937 2 0.209505 0.595197 0.862043
407 1 0.0710946 0.562282 0.876469
912 2 0.0728955 0.647286 0.803086
22 1 0.0998954 0.77926 0.85265
894 2 0.406491 0.688814 0.875214
939 2 0.531629 0.685048 0.850653
925 2 0.354062 0.825453 0.889632
394 1 0.659944 0.571195 0.847011
915 2 0.489617 0.528516 0.847069
931 2 0.644577 0.631944 0.881675
435 1 0.95276 0.495218 0.85614
902 2 0.946549 0.667731 0.858406
890 2 0.809655 0.554993 0.874842
395 1 0.796197 0.673384 0.897247
911 2 0.105323 0.804339 0.81264
452 1 0.273459 0.734368 0.854863
968 2 0.201496 0.853283 0.87726
428 1 0.136128 0.952012 0.839363
434 1 0.314052 0.903805 0.844614
934 2 0.297205 0.113166 0.888685
868 2 0.632063 0.809715 0.86146
904 2 0.626198 0.940715 0.884052
914 2 0.528295 0.736251 0.894227
399 1 0.66437 0.987893 0.85038
403 1 0.379247 0.984817 0.870406
459 1 0.797035 0.931618 0.880333
336 1 0.768012 0.73826 0.861086
420 1 0.949728 0.932567 0.833832
421 1 0.815721 0.856343 0.83573
451 1 0.816956 0.0188092 0.846813
457 1 0.132724 0.0985317 0.866989
483 1 0.19559 0.225464 0.886118
995 2 0.165499 0.0419273 0.91115
996 2 0.122454 0.190572 0.937404
955 2 0.0357267 0.214224 0.854446
928 2 0.469018 0.11875 0.882018
2 1 0.503745 0.153142 0.927526
427 1 0.410817 0.0160799 0.915043
446 1 0.361987 0.201425 0.926763
953 2 0.762825 0.0881415 0.876539
409 1 0.61891 0.109231 0.880846
20 1 0.568817 0.951867 0.932507
973 2 0.528313 0.30275 0.93948
479 1 0.978679 0.178431 0.933428
954 2 0.0544584 0.200486 0.890914
480 1 0.796177 0.22841 0.927768
75 1 0.876643 0.102527 0.908718
436 1 0.225072 0.487401 0.89503
25 1 0.156398 0.350499 0.907537
402 1 0.0572849 0.493241 0.91001