ITEM: TIMESTEP
11200
ITEM: NUMBER OF ATOMS
1000
ITEM: BOX BOUNDS pp pp pp
0.0000000000000000e+00 6.2996052494743662e+00
0.0000000000000000e+00 6.2996052494743662e+00
0.0000000000000000e+00 2.5198420997897465e+01
ITEM: ATOMS id type xs ys zs
46 1 0.177087 0.0281666 0.0382158
486 1 0.019019 0.137874 0.0500301
13 1 0.128056 0.184848 0.0207289
28 1 0.306208 0.115506 0.0530073
526 2 0.380705 0.283828 0.0477488
17 1 0.469616 0.160299 0.0277964
498 1 0.432241 0.0211552 0.0418275
454 1 0.289472 0.184875 0.0169216
529 2 0.592304 0.0934055 0.0446006
573 2 0.597662 0.201406 0.0167088
571 2 0.564997 0.0555974 0.00373776
36 1 0.704772 0.10031 0.0180222
544 2 0.841629 0.197423 0.0360973
534 2 0.710421 0.00137567 0.0560777
507 2 0.867133 0.0491416 0.0247861
100 1 0.899141 0.0301287 0.0635609
16 1 0.979532 0.189166 0.0148143
528 2 0.143928 0.227759 0.0574334
510 2 0.0789819 0.331603 0.0166686
987 2 0.174684 0.529384 0.0239646
927 2 0.201754 0.476668 0.988839
532 2 0.99986 0.474988 0.0210986
489 1 0.299017 0.400908 0.0319526
63 1 0.422927 0.524984 0.0336236
979 2 0.401823 0.297744 0.0077968
506 2 0.607601 0.49159 0.0456827
999 2 0.65429 0.408832 0.01465
982 2 0.633336 0.298144 0.0410136
512 2 0.506698 0.373404 0.0376453
477 1 0.902608 0.315575 0.997883
485 1 0.782335 0.326431 0.0320088
977 2 0.942119 0.329254 0.0373105
73 1 0.73127 0.440939 0.0600738
963 2 0.315656 0.634422 0.0209046
86 1 0.0494911 0.628752 0.0219814
514 2 0.459845 0.723542 0.033773
980 2 0.354653 0.552002 0.989529
989 2 0.714885 0.578542 0.0324695
998 2 0.524998 0.608849 0.0594681
33 1 0.718456 0.678201 0.0665262
978 2 0.474901 0.622523 0.00300332
947 2 0.619841 0.701561 0.0234822
961 2 0.8723 0.561243 0.039468
545 2 0.874408 0.761214 0.0370279
31 1 0.795503 0.675842 0.00834123
997 2 0.205671 0.721365 0.0373315
37 1 0.151399 0.889764 0.0159677
525 2 0.199469 0.881285 0.0527726
524 2 0.289664 0.84358 9.83303e-05
18 1 0.33775 0.812629 0.0404982
918 2 0.322753 0.00051197 0.0168828
9 1 0.440208 0.91204 0.00591952
12 1 0.580668 0.933956 0.0438392
95 1 0.719325 0.825809 0.031788
29 1 0.73027 0.958678 0.0093923
971 2 0.595651 0.748668 0.0655545
488 1 0.990077 0.812934 0.0131535
21 1 0.00750256 0.799417 0.0565112
936 2 0.0128063 0.0117277 0.0224953
549 2 0.861223 0.901319 0.0414764
11 1 0.133533 0.123368 0.100755
985 2 0.0287063 0.297635 0.0773294
560 2 0.401089 0.051227 0.0787472
600 2 0.49876 0.16699 0.0655724
48 1 0.455156 0.151632 0.100968
548 2 0.581019 0.0348249 0.0820966
27 1 0.698829 0.171852 0.0638181
503 2 0.635842 0.0886858 0.11742
1 1 0.997587 0.0505837 0.0990925
565 2 0.80319 0.0759692 0.0930854
598 2 0.896548 0.18993 0.110507
41 1 0.903203 0.165392 0.0759348
85 1 0.0734436 0.408192 0.0567029
77 1 0.0883289 0.438661 0.109154
581 2 0.222967 0.377143 0.0700194
7 1 0.450442 0.439975 0.0676188
527 2 0.416264 0.29309 0.092213
52 1 0.255192 0.215622 0.0839003
551 2 0.326346 0.421424 0.0986721
521 2 0.617008 0.25087 0.0898744
552 2 0.594253 0.400837 0.08028
35 1 0.766786 0.295626 0.0790528
981 2 0.924126 0.421999 0.0739417
89 1 0.935642 0.360564 0.110387
65 1 0.232656 0.589976 0.0611965
957 2 0.0755965 0.539028 0.0807119
10 1 0.00188989 0.731016 0.090898
517 2 0.17213 0.61971 0.106408
70 1 0.12277 0.691405 0.0691655
64 1 0.945293 0.531309 0.10283
519 2 0.42979 0.57941 0.0908592
547 2 0.315215 0.564303 0.120928
56 1 0.364338 0.655588 0.0578667
523 2 0.274101 0.720545 0.0850693
511 2 0.621462 0.558726 0.0890399
15 1 0.6515 0.715528 0.0979602
531 2 0.474354 0.551835 0.131781
537 2 0.435054 0.748088 0.088864
520 2 0.81016 0.575958 0.0742052
40 1 0.962015 0.62249 0.066965
533 2 0.801683 0.451315 0.101064
967 2 0.0497865 0.966938 0.0639982
44 1 0.132058 0.966245 0.112044
546 2 0.17792 0.81997 0.0909123
57 1 0.214648 0.00795275 0.0795472
39 1 0.980133 0.887942 0.0982867
23 1 0.334355 0.873804 0.0834969
543 2 0.47232 0.948887 0.101552
559 2 0.458304 0.865356 0.0575102
516 2 0.724371 0.819636 0.0702636
96 1 0.704421 0.954444 0.0917097
577 2 0.592683 0.861669 0.0975887
502 2 0.843719 0.767603 0.0875963
575 2 0.845755 0.91113 0.0790432
80 1 0.99183 0.117592 0.135384
566 2 0.15314 0.0112853 0.148451
82 1 0.15971 0.18728 0.141854
105 1 0.00811946 0.0530544 0.169112
580 2 0.0165656 0.213447 0.173264
101 1 0.298825 0.182304 0.124371
555 2 0.295495 0.0279033 0.108134
599 2 0.51707 0.0693401 0.165273
93 1 0.322515 0.153269 0.16099
92 1 0.402154 0.031572 0.135925
99 1 0.672021 0.0668759 0.161332
79 1 0.56776 0.246968 0.12826
34 1 0.746502 0.19687 0.124901
59 1 0.771561 0.993465 0.13323
554 2 0.846802 0.126918 0.157716
590 2 0.0645442 0.25562 0.116767
582 2 0.00636581 0.557554 0.135061
83 1 0.203711 0.326388 0.111076
564 2 0.0703481 0.373983 0.145709
595 2 0.118813 0.464167 0.178576
125 1 0.235446 0.45968 0.13542
538 2 0.38067 0.417398 0.137076
561 2 0.310651 0.309079 0.16824
78 1 0.435996 0.261101 0.136839
556 2 0.460457 0.346126 0.174288
558 2 0.498917 0.407188 0.111283
50 1 0.666595 0.390471 0.113297
62 1 0.581377 0.378667 0.149217
26 1 0.929288 0.285704 0.146909
604 2 0.799836 0.328886 0.127633
94 1 0.795749 0.532695 0.135013
54 1 0.954586 0.430189 0.182089
84 1 0.814325 0.401451 0.159645
550 2 0.259616 0.706087 0.12849
553 2 0.118366 0.647169 0.140289
98 1 0.0599331 0.728297 0.168933
91 1 0.181592 0.599158 0.170963
38 1 0.516623 0.69982 0.131885
570 2 0.449672 0.692768 0.175663
141 1 0.349335 0.627462 0.157791
97 1 0.360411 0.790594 0.158979
509 2 0.649789 0.533264 0.13314
116 1 0.515341 0.500477 0.169323
14 1 0.657595 0.617868 0.169056
90 1 0.709962 0.719335 0.137859
66 1 0.853264 0.653899 0.114276
594 2 0.935503 0.679813 0.158873
42 1 0.0704557 0.794586 0.124293
541 2 0.152928 0.857642 0.159077
542 2 0.259905 0.88638 0.123605
53 1 0.310586 0.945429 0.163114
597 2 0.398692 0.875866 0.133943
589 2 0.470101 0.919593 0.169839
88 1 0.59625 0.832424 0.13524
69 1 0.681475 0.905014 0.161179
539 2 0.556569 0.974043 0.132204
139 1 0.573372 0.775444 0.171554
513 2 0.776233 0.846325 0.11618
576 2 0.916484 0.970588 0.135289
60 1 0.955904 0.865643 0.161994
587 2 0.900884 0.78724 0.131193
540 2 0.810039 0.75218 0.165618
68 1 0.796286 0.987978 0.173721
610 2 0.0895316 0.129777 0.205403
638 2 0.230237 0.228759 0.205712
118 1 0.224762 0.0771246 0.224389
74 1 0.361057 0.115177 0.217346
586 2 0.430129 0.260665 0.226372
583 2 0.214473 0.0856577 0.181731
112 1 0.500396 0.218184 0.192903
76 1 0.623827 0.24187 0.165731
110 1 0.646886 0.18848 0.221279
157 1 0.529485 0.0879904 0.217323
579 2 0.633083 0.0455776 0.24658
150 1 0.856047 0.268382 0.184539
109 1 0.75994 0.135012 0.189648
605 2 0.900956 0.114519 0.21234
535 2 0.0149748 0.461586 0.218724
107 1 0.157167 0.309778 0.179285
651 2 0.176388 0.389865 0.21329
128 1 0.13567 0.263222 0.234832
87 1 0.311692 0.495411 0.180198
611 2 0.33086 0.367075 0.203974
608 2 0.56832 0.391117 0.215012
557 2 0.639081 0.429535 0.178836
671 2 0.712637 0.285535 0.196249
607 2 0.692911 0.43559 0.233103
601 2 0.986515 0.247349 0.213693
81 1 0.841332 0.394885 0.202832
104 1 0.890319 0.54334 0.228159
111 1 0.0114852 0.580302 0.183168
622 2 0.0940096 0.679283 0.204318
606 2 0.179914 0.54132 0.207134
618 2 0.0789083 0.577595 0.245722
591 2 0.231323 0.666908 0.22845
632 2 0.303138 0.650215 0.193514
142 1 0.472775 0.6523 0.229068
72 1 0.435503 0.498799 0.205161
67 1 0.534466 0.604571 0.19817
592 2 0.67299 0.600526 0.233138
635 2 0.760369 0.532034 0.202563
563 2 0.799413 0.661186 0.201351
615 2 0.850739 0.55506 0.173919
108 1 0.943509 0.660937 0.211702
122 1 0.206376 0.745503 0.186298
596 2 0.114661 0.938535 0.19206
642 2 0.0394195 0.820883 0.206094
536 2 0.39913 0.0340471 0.188776
578 2 0.262509 0.883772 0.192646
127 1 0.33357 0.948275 0.225316
613 2 0.360772 0.781051 0.21507
562 2 0.554073 0.896244 0.203057
572 2 0.68594 0.970707 0.20066
144 1 0.688252 0.792502 0.194331
593 2 0.600304 0.789683 0.227717
117 1 0.938392 0.964338 0.200907
530 2 0.880455 0.802437 0.195197
55 1 0.787023 0.0170596 0.223189
648 2 0.927612 0.823284 0.237441
602 2 0.221691 0.13724 0.26563
172 1 0.0743998 0.157698 0.285145
102 1 0.0391766 0.116879 0.245765
603 2 0.366469 0.126662 0.256544
134 1 0.476271 0.986834 0.241572
131 1 0.43988 0.0385898 0.277471
137 1 0.365388 0.238473 0.280373
124 1 0.513189 0.157153 0.262979
653 2 0.621019 0.014042 0.288541
151 1 0.736757 0.0835048 0.282646
623 2 0.696361 0.20057 0.253193
569 2 0.975793 0.239783 0.259762
667 2 0.838536 0.143145 0.251931
652 2 0.808392 0.230784 0.282564
140 1 0.107648 0.414655 0.249416
145 1 0.0986602 0.295298 0.277933
166 1 0.163377 0.474644 0.285905
636 2 0.265488 0.404095 0.259655
626 2 0.280072 0.248629 0.24631
675 2 0.423965 0.401512 0.246007
612 2 0.504387 0.298947 0.289711
138 1 0.543752 0.306537 0.248758
637 2 0.686672 0.358722 0.272202
585 2 0.843777 0.301331 0.233932
634 2 0.787633 0.480851 0.264099
135 1 0.921599 0.405928 0.2594
120 1 0.0600282 0.718015 0.241421
624 2 0.219714 0.618495 0.273252
620 2 0.0101038 0.565145 0.29981
617 2 0.301853 0.501028 0.230419
146 1 0.398338 0.570684 0.266926
103 1 0.341038 0.735909 0.254818
164 1 0.417718 0.741767 0.285794
114 1 0.492831 0.47636 0.285748
115 1 0.551469 0.713145 0.257134
670 2 0.525708 0.516231 0.24009
123 1 0.63799 0.518065 0.26894
665 2 0.830453 0.691685 0.239022
609 2 0.993008 0.728157 0.278628
169 1 0.957085 0.564666 0.262991
629 2 0.833922 0.628557 0.280936
567 2 0.0712063 0.9761 0.230692
616 2 0.188577 0.85126 0.228111
121 1 0.0429814 0.862385 0.26631
672 2 0.200761 0.788941 0.260472
568 2 0.194385 0.984311 0.262504
153 1 0.333091 0.901231 0.269321
149 1 0.447924 0.832064 0.244221
147 1 0.45304 0.895397 0.295299
113 1 0.773831 0.864011 0.222567
647 2 0.596962 0.90727 0.25545
160 1 0.702087 0.786496 0.259494
588 2 0.740514 0.950968 0.258136
175 1 0.00679349 0.991356 0.28299
614 2 0.925904 0.980148 0.248964
621 2 0.875988 0.879424 0.275115
646 2 0.225377 0.165673 0.310325
182 1 0.114462 0.107941 0.357637
680 2 0.0421233 0.0953191 0.317991
163 1 0.28623 0.0293728 0.294324
197 1 0.355951 0.227075 0.317771
183 1 0.460032 0.14329 0.301868
640 2 0.637481 0.215062 0.286745
658 2 0.603428 0.121252 0.322049
627 2 0.767602 0.104001 0.370051
628 2 0.749948 0.0621312 0.320548
119 1 0.976444 0.240205 0.301531
126 1 0.727061 0.230672 0.31972
180 1 0.889176 0.084359 0.29327
185 1 0.876582 0.197865 0.334817
661 2 0.196152 0.376179 0.314224
106 1 0.100004 0.232611 0.326579
584 2 0.00360128 0.399159 0.29811
687 2 0.0868874 0.373158 0.341282
201 1 0.331014 0.389593 0.295968
650 2 0.506976 0.419715 0.319273
657 2 0.286389 0.319883 0.344716
167 1 0.391818 0.492965 0.339638
136 1 0.40106 0.271552 0.369256
662 2 0.561604 0.285744 0.333496
158 1 0.642085 0.366831 0.310152
129 1 0.720584 0.502695 0.297519
217 1 0.615866 0.413058 0.358826
133 1 0.771552 0.320567 0.355359
161 1 0.815058 0.368998 0.301363
699 2 0.907047 0.33921 0.329749
666 2 0.925235 0.48951 0.34294
194 1 0.782243 0.450923 0.331701
645 2 0.233068 0.466269 0.351936
641 2 0.145454 0.658405 0.313173
191 1 0.0883734 0.53249 0.337637
720 2 0.235359 0.619569 0.343104
168 1 0.286079 0.538283 0.302968
619 2 0.501397 0.600746 0.301362
171 1 0.375791 0.642099 0.328746
143 1 0.515042 0.563694 0.351595
697 2 0.28596 0.70275 0.302517
630 2 0.672024 0.669199 0.287363
148 1 0.612036 0.523171 0.319025
198 1 0.580007 0.733963 0.343469
643 2 0.675171 0.565224 0.353236
170 1 0.760383 0.61401 0.318121
130 1 0.878528 0.510715 0.303535
649 2 0.909386 0.668329 0.322089
176 1 0.146835 0.985729 0.300726
700 2 0.0663989 0.933251 0.337234
207 1 0.178789 0.784597 0.338707
247 1 0.134134 0.809894 0.295264
177 1 0.422098 0.996862 0.321648
696 2 0.281835 0.873542 0.300656
231 1 0.222944 0.0379707 0.333663
691 2 0.330195 0.824572 0.343937
673 2 0.461863 0.760805 0.3197
154 1 0.594969 0.809131 0.287504
190 1 0.577922 0.90723 0.318605
152 1 0.934333 0.816417 0.305861
625 2 0.748441 0.898275 0.305049
639 2 0.782456 0.75484 0.308436
196 1 0.0371552 0.758857 0.327151
155 1 0.898931 0.957329 0.322711
195 1 0.785485 0.796603 0.345508
677 2 0.102632 0.0545154 0.390098
211 1 0.0948451 0.197951 0.402186
656 2 0.982191 0.212252 0.364734
706 2 0.285885 0.152872 0.353225
678 2 0.477564 0.13586 0.357132
702 2 0.34718 0.969479 0.361088
187 1 0.462549 0.191863 0.395179
188 1 0.26845 0.0930191 0.387858
238 1 0.421365 0.0283967 0.39908
655 2 0.7285 0.931031 0.338872
633 2 0.636316 0.0987613 0.403874
698 2 0.554293 0.0150288 0.374635
159 1 0.710916 0.972945 0.387224
679 2 0.959618 0.0654892 0.350093
179 1 0.901999 0.100738 0.385633
736 2 0.149656 0.252658 0.367598
213 1 0.232421 0.261137 0.403092
156 1 0.130874 0.417302 0.380619
162 1 0.418723 0.365039 0.416544
669 2 0.42336 0.463119 0.379144
132 1 0.296662 0.366112 0.385691
686 2 0.626891 0.213871 0.364163
244 1 0.765767 0.461996 0.386638
692 2 0.540482 0.323843 0.390125
664 2 0.660557 0.363601 0.403319
718 2 0.581122 0.480854 0.392678
165 1 0.831136 0.225846 0.383238
184 1 0.955814 0.287316 0.403349
693 2 0.916879 0.351702 0.370421
216 1 0.993571 0.555243 0.371603
220 1 0.168683 0.564423 0.374488
199 1 0.0821317 0.667258 0.354523
205 1 0.0576026 0.614171 0.401458
225 1 0.139017 0.754525 0.393256
631 2 0.354594 0.622392 0.371408
221 1 0.271269 0.800469 0.381028
725 2 0.420724 0.720092 0.401478
173 1 0.524703 0.644669 0.38273
676 2 0.720149 0.711867 0.380542
644 2 0.828865 0.610654 0.349524
186 1 0.0121682 0.459935 0.39997
275 1 0.875433 0.551672 0.397306
674 2 0.939521 0.695248 0.360378
682 2 0.196988 0.958731 0.368723
660 2 0.0901684 0.841961 0.366888
178 1 0.501031 0.879457 0.355643
223 1 0.453393 0.755118 0.36499
202 1 0.464227 0.881377 0.393902
174 1 0.594307 0.760232 0.40046
724 2 0.632554 0.844401 0.370966
690 2 0.974663 0.963537 0.390721
654 2 0.888067 0.926316 0.359996
200 1 0.970916 0.770052 0.396776
719 2 0.782953 0.840354 0.384662
236 1 0.0482923 0.0201763 0.433965
261 1 0.185362 0.27586 0.442124
235 1 0.208463 0.117463 0.424873
232 1 0.35421 0.178626 0.431817
214 1 0.46697 0.955676 0.448888
684 2 0.510295 0.135028 0.429249
233 1 0.391553 0.136603 0.466744
705 2 0.727088 0.172484 0.462878
717 2 0.694881 0.0359396 0.43298
716 2 0.652938 0.231346 0.420977
729 2 0.556315 0.0800665 0.461782
189 1 0.799069 0.151057 0.41467
715 2 0.851467 0.0867862 0.446223
659 2 0.863286 0.23294 0.456851
181 1 0.960089 0.164641 0.41965
321 1 0.978519 0.116298 0.465892
710 2 0.107582 0.357907 0.414872
242 1 0.286571 0.383633 0.433095
265 1 0.0348089 0.294386 0.45837
688 2 0.309019 0.492368 0.406066
714 2 0.436013 0.414009 0.460511
239 1 0.57054 0.359807 0.432043
689 2 0.725293 0.335125 0.444624
739 2 0.590236 0.392837 0.473554
240 1 0.675041 0.463102 0.431357
734 2 0.565759 0.231142 0.475786
192 1 0.996723 0.413734 0.435692
709 2 0.822233 0.362441 0.416856
215 1 0.901853 0.385203 0.464112
203 1 0.269162 0.646217 0.405942
745 2 0.104116 0.731598 0.441348
222 1 0.0518434 0.580647 0.440321
296 1 0.157718 0.497696 0.416433
695 2 0.192254 0.637428 0.453344
193 1 0.451085 0.541627 0.410353
237 1 0.331974 0.553904 0.441011
204 1 0.447278 0.644987 0.44949
722 2 0.335758 0.752582 0.447025
723 2 0.608332 0.626185 0.422673
721 2 0.542063 0.521928 0.446162
663 2 0.718085 0.608235 0.453582
737 2 0.778057 0.710109 0.419035
767 2 0.837513 0.491096 0.438257
246 1 0.943373 0.665401 0.427379
685 2 0.75752 0.450561 0.472669
774 2 0.856198 0.696123 0.459254
212 1 0.183083 0.952628 0.413729
257 1 0.134678 0.889636 0.460367
681 2 0.0703383 0.86305 0.419893
755 2 0.98367 0.827256 0.469195
746 2 0.226453 0.827787 0.428502
707 2 0.339106 0.965713 0.427436
208 1 0.500046 0.801194 0.427851
708 2 0.250855 0.0370394 0.457046
683 2 0.600202 0.935102 0.411707
703 2 0.752901 0.872325 0.423395
228 1 0.629447 0.914593 0.450068
229 1 0.663093 0.761529 0.440184
209 1 0.897279 0.854425 0.421106
224 1 0.768457 0.844707 0.461765
749 2 0.842264 0.000842957 0.412328
251 1 0.918867 0.956904 0.453765
732 2 0.139095 0.27485 0.482792
753 2 0.252162 0.0944929 0.495492
735 2 0.147193 0.156182 0.461667
763 2 0.106567 0.285151 0.52377
264 1 0.505457 0.163053 0.505198
731 2 0.375806 0.127956 0.525687
778 2 0.576455 0.3099 0.505879
255 1 0.489206 0.980278 0.500725
804 2 0.646032 0.0861491 0.495704
711 2 0.97334 0.240739 0.498735
250 1 0.76196 0.00334399 0.468889
284 1 0.0824202 0.106888 0.511641
210 1 0.850242 0.118794 0.492683
759 2 0.749129 0.236172 0.527038
260 1 0.907935 0.208616 0.530659
272 1 0.159511 0.428958 0.458148
262 1 0.99402 0.511585 0.472622
765 2 0.0232793 0.38335 0.497499
747 2 0.160909 0.424368 0.518218
742 2 0.276767 0.235347 0.512239
712 2 0.29321 0.481985 0.473096
234 1 0.293215 0.275487 0.466215
738 2 0.443162 0.297582 0.484215
792 2 0.304041 0.366674 0.498673
259 1 0.421721 0.309573 0.519905
230 1 0.789685 0.306811 0.49518
779 2 0.474458 0.497173 0.491781
219 1 0.624188 0.45965 0.507418
740 2 0.883343 0.413999 0.505512
761 2 0.819678 0.363594 0.539681
206 1 0.00641203 0.663527 0.469116
762 2 0.00918749 0.514355 0.51985
273 1 0.0346998 0.655097 0.526109
267 1 0.144353 0.551662 0.492232
766 2 0.236641 0.721868 0.517586
713 2 0.305056 0.647342 0.482134
218 1 0.48869 0.652479 0.492807
269 1 0.535419 0.542677 0.529782
744 2 0.7477 0.553746 0.512412
694 2 0.613418 0.558139 0.478471
748 2 0.630492 0.68517 0.511007
300 1 0.757906 0.702356 0.49334
245 1 0.876662 0.583599 0.491594
314 1 0.764335 0.700555 0.540907
780 2 0.0532363 0.947893 0.536247
278 1 0.104399 0.735152 0.501101
726 2 0.138761 0.998101 0.493012
727 2 0.457703 0.80113 0.467892
741 2 0.231907 0.790953 0.475137
266 1 0.296516 0.982223 0.522553
733 2 0.343542 0.975279 0.483731
227 1 0.3394 0.820538 0.509962
279 1 0.541405 0.825841 0.50539
668 2 0.594122 0.743922 0.473065
243 1 0.788587 0.858671 0.504117
772 2 0.633732 0.915183 0.488217
823 2 0.638948 0.954578 0.530696
308 1 0.752718 0.0770986 0.529035
701 2 0.922045 0.735767 0.499103
799 2 0.932723 0.976027 0.492828
770 2 0.854726 0.832136 0.538207
793 2 0.0121312 0.862098 0.506376
287 1 0.177498 0.0660239 0.546113
256 1 0.0629771 0.0140964 0.577891
788 2 0.150137 0.20212 0.574463
757 2 0.257101 0.1945 0.549837
802 2 0.257485 0.067068 0.582673
310 1 0.389119 0.172945 0.569817
809 2 0.482191 0.0374471 0.544448
289 1 0.539067 0.250968 0.541259
277 1 0.569127 0.153569 0.56702
294 1 0.704118 0.155801 0.560515
789 2 0.625514 0.0219503 0.576499
824 2 0.59681 0.099082 0.529864
290 1 0.923392 0.056553 0.526083
791 2 0.0299247 0.151085 0.554017
280 1 0.882293 0.0905105 0.563947
298 1 0.252058 0.480052 0.566323
286 1 0.010636 0.306932 0.580935
295 1 0.131346 0.36532 0.56366
299 1 0.0836347 0.512283 0.560531
728 2 0.307911 0.34151 0.544431
764 2 0.453184 0.355822 0.564441
771 2 0.279279 0.24497 0.598216
270 1 0.640881 0.358841 0.545025
285 1 0.564807 0.491467 0.563215
366 1 0.730573 0.499758 0.552323
790 2 0.875522 0.253898 0.566881
274 1 0.987015 0.364789 0.54401
320 1 0.750242 0.360586 0.573754
315 1 0.88913 0.466881 0.568468
775 2 0.175031 0.585201 0.533357
797 2 0.150382 0.636334 0.5787
249 1 0.375563 0.67118 0.523089
263 1 0.384171 0.500037 0.526752
293 1 0.305232 0.646568 0.567066
248 1 0.411337 0.497888 0.575373
769 2 0.463193 0.627404 0.562903
254 1 0.63887 0.62331 0.548835
226 1 0.662716 0.572393 0.589443
783 2 0.622644 0.730136 0.57858
241 1 0.876906 0.568894 0.527447
750 2 0.821284 0.617332 0.573424
754 2 0.0433089 0.792456 0.538179
297 1 0.99436 0.632125 0.568914
752 2 0.186511 0.860182 0.522375
751 2 0.173258 0.919259 0.555851
798 2 0.175278 0.730107 0.549972
796 2 0.353465 0.980015 0.561935
743 2 0.398047 0.78932 0.577006
258 1 0.296799 0.818432 0.549062
348 1 0.476872 0.0199578 0.588511
309 1 0.444221 0.908952 0.533766
704 2 0.657756 0.807905 0.543881
322 1 0.500323 0.772348 0.546304
282 1 0.577021 0.890039 0.565665
306 1 0.751504 0.953672 0.55261
730 2 0.920942 0.946894 0.55342
350 1 0.797594 0.772025 0.570141
291 1 0.156082 0.20903 0.615954
302 1 0.13386 0.0539553 0.623214
760 2 0.429985 0.135122 0.606086
758 2 0.419928 0.00743412 0.630764
756 2 0.288444 0.0782807 0.622798
372 1 0.477442 0.13445 0.639993
335 1 0.575893 0.17452 0.604321
311 1 0.749365 0.307945 0.620794
784 2 0.720166 0.0989637 0.610024
776 2 0.853624 0.151647 0.597034
781 2 0.0275044 0.148516 0.595702
305 1 0.843021 0.160943 0.634977
271 1 0.996178 0.0179671 0.632222
850 2 0.855385 0.980468 0.624724
349 1 0.13921 0.372004 0.61043
817 2 0.0139187 0.278059 0.622104
292 1 0.242262 0.422477 0.643814
832 2 0.318397 0.390784 0.598017
268 1 0.451826 0.291579 0.611951
787 2 0.341382 0.272768 0.642148
319 1 0.525685 0.440252 0.598191
834 2 0.418593 0.449956 0.627838
794 2 0.598091 0.292316 0.581497
773 2 0.70447 0.408623 0.647803
313 1 0.652892 0.39742 0.605225
365 1 0.574136 0.313057 0.631702
331 1 0.872801 0.340356 0.600264
811 2 0.927479 0.458704 0.615088
845 2 0.785461 0.474659 0.594594
816 2 0.878732 0.320599 0.646096
341 1 0.0741144 0.520455 0.603678
342 1 0.288684 0.551667 0.621126
328 1 0.163057 0.687134 0.619662
814 2 0.040877 0.738907 0.596111
253 1 0.363507 0.684755 0.603857
768 2 0.464888 0.580819 0.633151
818 2 0.567584 0.698634 0.63169
317 1 0.352513 0.670619 0.648758
303 1 0.651727 0.550592 0.633086
325 1 0.724902 0.682127 0.60896
288 1 0.524599 0.649993 0.597502
795 2 0.984421 0.567899 0.641631
813 2 0.801349 0.632657 0.650313
825 2 0.910657 0.656951 0.60571
283 1 0.228773 0.790728 0.586015
800 2 0.173648 0.937027 0.597167
785 2 0.0150637 0.864261 0.578049
822 2 0.102294 0.885648 0.628544
326 1 0.436655 0.844213 0.644128
842 2 0.351887 0.940105 0.596719
368 1 0.25948 0.825122 0.628545
826 2 0.698912 0.999292 0.64389
777 2 0.534777 0.834538 0.598934
324 1 0.603101 0.875694 0.633212
808 2 0.70157 0.932112 0.600039
374 1 0.57704 0.0201035 0.616705
281 1 0.848384 0.933371 0.58262
843 2 0.81813 0.8118 0.608435
865 2 0.951368 0.868458 0.610234
810 2 0.986844 0.174347 0.652761
347 1 0.129322 0.111775 0.656329
332 1 0.0597537 0.122389 0.691172
829 2 0.242308 0.187179 0.685844
820 2 0.248415 0.033447 0.690297
276 1 0.43703 0.981896 0.669151
833 2 0.362565 0.129636 0.667162
827 2 0.502535 0.104493 0.69541
803 2 0.600036 0.0682741 0.666775
301 1 0.666176 0.190784 0.643721
329 1 0.678681 0.17488 0.699723
846 2 0.880464 0.190405 0.680502
304 1 0.755731 0.104026 0.669068
849 2 0.848505 0.997577 0.662307
358 1 0.781052 0.00836895 0.69715
357 1 0.0250321 0.426598 0.65506
812 2 0.182708 0.442224 0.679741
807 2 0.177881 0.277575 0.658006
861 2 0.0474883 0.498416 0.690683
377 1 0.024394 0.288751 0.676808
782 2 0.348493 0.46377 0.671324
333 1 0.476407 0.356408 0.655926
323 1 0.353641 0.302566 0.690583
837 2 0.508252 0.389433 0.691556
364 1 0.424163 0.500009 0.702672
330 1 0.578345 0.245773 0.67548
339 1 0.695959 0.385354 0.713331
376 1 0.749315 0.269815 0.677306
338 1 0.559703 0.478072 0.660336
840 2 0.862136 0.478827 0.655051
871 2 0.888418 0.385377 0.687571
801 2 0.154562 0.543517 0.638295
387 1 0.213991 0.785872 0.665434
891 2 0.0850123 0.667763 0.678795
862 2 0.246808 0.581175 0.676332
867 2 0.379555 0.64625 0.696058
847 2 0.455171 0.584202 0.670146
340 1 0.729469 0.518136 0.672899
844 2 0.574065 0.517413 0.704924
343 1 0.606941 0.618917 0.675048
848 2 0.929447 0.599234 0.684259
838 2 0.761244 0.672813 0.691154
345 1 0.898781 0.503026 0.70856
875 2 0.900068 0.726726 0.70473
821 2 0.153812 0.943964 0.668749
815 2 0.0550057 0.721585 0.640999
841 2 0.240121 0.875426 0.699285
855 2 0.974514 0.900297 0.674309
836 2 0.0899737 0.815189 0.688814
396 1 0.0617692 0.9752 0.707714
252 1 0.268329 0.962365 0.647059
872 2 0.363637 0.953078 0.714141
346 1 0.397978 0.831583 0.681592
874 2 0.498359 0.75391 0.703378
839 2 0.712092 0.755646 0.651064
819 2 0.553282 0.86689 0.668076
316 1 0.630959 0.957106 0.691863
873 2 0.637854 0.765033 0.686321
860 2 0.902888 0.753447 0.671266
355 1 0.841413 0.845542 0.647152
423 1 0.792963 0.862382 0.691136
857 2 0.268598 0.273713 0.723733
876 2 0.150994 0.155523 0.721643
806 2 0.133636 0.278413 0.750204
805 2 0.0735008 0.995846 0.745289
881 2 0.234162 0.0176899 0.733078
786 2 0.334182 0.139742 0.716644
854 2 0.338951 0.165336 0.755656
353 1 0.457813 0.0907347 0.731592
359 1 0.420558 0.295637 0.722645
334 1 0.621968 0.0424835 0.730051
389 1 0.630971 0.114365 0.766203
869 2 0.763792 0.0839267 0.741807
895 2 0.69524 0.94718 0.766272
853 2 0.820595 0.232786 0.7574
864 2 0.921505 0.0502303 0.710958
352 1 0.974125 0.177252 0.725855
416 1 0.154038 0.382702 0.714538
828 2 0.220508 0.430075 0.754331
361 1 0.0549375 0.471136 0.738538
851 2 0.293617 0.417728 0.723298
393 1 0.375354 0.371063 0.759736
408 1 0.353833 0.533631 0.764068
835 2 0.55182 0.198607 0.720947
307 1 0.539268 0.289854 0.757403
360 1 0.509179 0.415694 0.73184
889 2 0.659016 0.37771 0.755179
414 1 0.691646 0.251623 0.739602
390 1 0.825452 0.246424 0.711725
863 2 0.98658 0.325562 0.718322
859 2 0.837921 0.408894 0.735518
386 1 0.92677 0.510668 0.753132
930 2 0.78725 0.367045 0.770422
362 1 0.181434 0.551746 0.718969
831 2 0.200375 0.707423 0.703002
312 1 0.117348 0.611533 0.74648
318 1 0.477716 0.59004 0.728667
400 1 0.465209 0.674883 0.772907
373 1 0.313637 0.5975 0.725928
370 1 0.752149 0.531571 0.71524
893 2 0.605228 0.562871 0.744393
898 2 0.641759 0.649026 0.712829
404 1 0.758338 0.77007 0.719925
424 1 0.999066 0.614244 0.719476
473 1 0.818658 0.638464 0.737043
344 1 0.0131543 0.712496 0.760944
398 1 0.0902699 0.742426 0.724967
896 2 0.165861 0.875234 0.732754
367 1 0.253736 0.720243 0.74346
371 1 0.355413 0.785754 0.715397
886 2 0.385259 0.989674 0.75559
430 1 0.400946 0.819339 0.758633
897 2 0.266186 0.86518 0.756191
327 1 0.528986 0.910081 0.720322
909 2 0.619828 0.854644 0.746434
900 2 0.559116 0.712749 0.742336
356 1 0.879731 0.999797 0.76355
354 1 0.781794 0.919689 0.73173
379 1 0.955035 0.853585 0.721235
406 1 0.989144 0.869142 0.770054
899 2 0.890897 0.770662 0.752021
830 2 0.176713 0.130282 0.761839
910 2 0.211525 0.25704 0.784096
384 1 0.979653 0.186213 0.761299
413 1 0.12859 0.0861558 0.800218
412 1 0.279535 0.145184 0.808668
852 2 0.263362 0.0194592 0.775588
882 2 0.424581 0.0589144 0.790773
369 1 0.398315 0.236027 0.785803
941 2 0.421427 0.188137 0.82314
382 1 0.495718 0.0545087 0.821436
924 2 0.550241 0.150701 0.800348
460 1 0.682015 0.241986 0.781816
920 2 0.67334 0.0528956 0.808504
880 2 0.969978 0.159184 0.80184
877 2 0.0102768 0.0358227 0.778957
879 2 0.792121 0.0818621 0.785713
922 2 0.848971 0.041726 0.82648
990 2 0.877593 0.28735 0.788507
932 2 0.110699 0.252276 0.811688
363 1 0.143414 0.453753 0.796056
443 1 0.312125 0.438308 0.793499
429 1 0.412202 0.463926 0.834186
884 2 0.584111 0.334357 0.800574
887 2 0.492653 0.42553 0.776162
391 1 0.670175 0.492838 0.813006
385 1 0.998131 0.356303 0.758743
381 1 0.914025 0.459005 0.792015
858 2 0.192248 0.577683 0.782208
441 1 0.0450473 0.554988 0.776056
497 1 0.972906 0.762983 0.801103
913 2 0.21019 0.597822 0.823416
917 2 0.304032 0.66694 0.782875
943 2 0.365042 0.7385 0.823084
933 2 0.465872 0.556438 0.796123
375 1 0.716957 0.664755 0.768911
410 1 0.75846 0.51528 0.781846
866 2 0.522852 0.696738 0.812319
449 1 0.601948 0.573241 0.780766
870 2 0.671319 0.772543 0.799457
885 2 0.883651 0.64397 0.781233
422 1 0.793321 0.637512 0.811964
411 1 0.92724 0.554859 0.818352
942 2 0.241287 0.775049 0.80819
392 1 0.146702 0.941921 0.772593
401 1 0.150196 0.716845 0.775055
916 2 0.03146 0.96402 0.818314
476 1 0.204419 0.927867 0.815601
383 1 0.372391 0.906294 0.791325
923 2 0.478337 0.844977 0.816621
397 1 0.535118 0.965562 0.766184
337 1 0.544157 0.823505 0.782227
919 2 0.611017 0.926686 0.801753
856 2 0.825552 0.793101 0.80907
425 1 0.880449 0.928734 0.796245
972 2 0.776705 0.825173 0.776875
378 1 0.228703 0.0501513 0.838464
921 2 0.0817081 0.128045 0.838579
388 1 0.342975 0.115953 0.860276
949 2 0.543849 0.217584 0.85244
380 1 0.364528 0.00212082 0.826449
405 1 0.657203 0.224041 0.820608
481 1 0.483697 0.0637273 0.858264
975 2 0.737471 0.129919 0.852677
499 1 0.924668 0.139475 0.84548
888 2 0.840035 0.231616 0.880894
976 2 0.827238 0.175396 0.810333
431 1 0.0825631 0.360218 0.842261
426 1 0.0413527 0.45893 0.879163
901 2 0.227024 0.447183 0.831127
878 2 0.23044 0.24147 0.846453
892 2 0.447272 0.326674 0.819894
984 2 0.280016 0.321779 0.818202
445 1 0.480268 0.388737 0.863811
418 1 0.229716 0.411647 0.865993
440 1 0.388702 0.268385 0.855739
883 2 0.716241 0.319722 0.852472
935 2 0.593761 0.41843 0.838658
960 2 0.663968 0.474926 0.873371
462 1 0.555366 0.306871 0.890868
351 1 0.00327806 0.35249 0.808836
964 2 0.753771 0.335038 0.80475
417 1 0.891588 0.319838 0.843302
944 2 0.801292 0.425951 0.832887
966 2 0.840679 0.433774 0.880198
940 2 0.0837298 0.525639 0.838791
937 2 0.207141 0.589691 0.865704
407 1 0.0640972 0.620375 0.882135
912 2 0.0690349 0.673335 0.823396
22 1 0.0596428 0.803683 0.849157
894 2 0.364341 0.562405 0.86093
939 2 0.496081 0.660916 0.850858
925 2 0.372267 0.727851 0.872667
394 1 0.632573 0.638041 0.834484
915 2 0.524463 0.522924 0.857263
931 2 0.656146 0.657157 0.873356
435 1 0.909769 0.511043 0.855435
902 2 0.905456 0.658601 0.840774
890 2 0.766797 0.566185 0.848664
395 1 0.839044 0.684378 0.879151
911 2 0.1039 0.827522 0.801232
452 1 0.225165 0.756306 0.845457
968 2 0.245871 0.879986 0.873228
428 1 0.118333 0.938306 0.850557
434 1 0.359711 0.858049 0.84721
934 2 0.331818 0.99547 0.886328
868 2 0.59118 0.810525 0.849505
904 2 0.633944 0.90688 0.875786
914 2 0.53714 0.753837 0.886623
399 1 0.614422 0.00640894 0.839904
403 1 0.48932 0.905298 0.865066
459 1 0.739203 0.785714 0.884132
336 1 0.761272 0.729955 0.845988
420 1 0.925888 0.902351 0.841042
421 1 0.738671 0.910476 0.833595
451 1 0.784876 0.93215 0.869645
457 1 0.0919931 0.0754349 0.877142
483 1 0.247388 0.123436 0.891466
995 2 0.148753 0.998804 0.906284
996 2 0.114273 0.186475 0.929553
955 2 0.119444 0.242333 0.875925
928 2 0.414807 0.16934 0.895427
2 1 0.482012 0.183047 0.929738
427 1 0.38009 0.97756 0.928691
446 1 0.296505 0.179392 0.922518
953 2 0.72523 0.0778786 0.888851
409 1 0.574443 0.0678215 0.886529
20 1 0.535955 0.0510853 0.921346
973 2 0.581084 0.301534 0.928395
479 1 0.965517 0.206726 0.928187
954 2 0.943638 0.125642 0.893384
480 1 0.769687 0.227426 0.924614
75 1 0.838158 0.0547119 0.91102
436 1 0.202565 0.469019 0.899903
25 1 0.130534 0.314384 0.910834
402 1 0.0572989 0.479919 0.918889