ITEM: TIMESTEP
19710
ITEM: NUMBER OF ATOMS
1000
ITEM: BOX BOUNDS pp pp pp
0.0000000000000000e+00 6.2996052494743662e+00
0.0000000000000000e+00 6.2996052494743662e+00
0.0000000000000000e+00 2.5198420997897465e+01
ITEM: ATOMS id type xs ys zs
512 2 0.114372 0.149783 0.0189118
959 2 0.915124 0.194701 0.0182253
951 2 0.894851 0.0171813 0.0223432
34 1 0.278143 0.170515 0.0183071
560 2 0.255704 0.00839195 0.0312583
527 2 0.43051 0.239782 0.0261035
548 2 0.413819 0.047178 0.0399737
507 2 0.560379 0.137553 0.0620304
27 1 0.635144 0.234504 0.0279387
518 2 0.605191 0.96852 0.0577219
29 1 0.54588 0.181664 0.973763
973 2 0.770401 0.14195 0.017252
471 1 0.0366177 0.184589 0.0531295
967 2 0.848472 0.128666 0.0527595
918 2 0.784288 0.321604 0.0356335
488 1 0.743301 0.986574 0.0396225
597 2 0.623911 0.086549 0.0314133
92 1 0.102932 0.308185 0.0359149
571 2 0.287294 0.324586 0.00335433
927 2 0.0820425 0.527561 0.0169023
952 2 0.209516 0.437817 0.0442648
63 1 0.344314 0.525568 0.0449246
52 1 0.183324 0.151074 0.054949
79 1 0.486268 0.498797 0.0229218
477 1 0.4108 0.307973 0.0660677
977 2 0.648808 0.468428 0.0451772
503 2 0.54366 0.32762 0.996281
520 2 0.737186 0.541953 0.99331
16 1 0.931402 0.349201 0.013253
496 1 0.655793 0.416639 0.011587
926 2 0.056665 0.267011 -0.000826428
85 1 0.211728 0.638761 0.0399777
478 1 0.309142 0.617636 0.992072
487 1 0.919553 0.719862 0.0420615
48 1 0.445446 0.652962 0.0221069
23 1 0.462478 0.819309 0.0183834
978 2 0.477836 0.593828 0.060764
514 2 0.543155 0.72024 0.0440186
33 1 0.640752 0.628051 0.058319
508 2 0.610808 0.579529 0.0125943
947 2 0.654535 0.720352 0.00866015
994 2 0.903372 0.511566 0.00890892
529 2 0.799902 0.487905 0.044104
987 2 0.979677 0.668269 0.00747713
510 2 0.120394 0.54002 0.0598434
931 2 0.778647 0.646837 0.0239782
139 1 0.131688 0.701276 0.0129442
979 2 0.176261 0.879763 0.0349859
532 2 0.876748 0.866248 0.049734
526 2 0.236022 0.0305326 0.993496
70 1 0.284989 0.775973 0.0212519
555 2 0.35154 0.924582 0.00762705
37 1 0.657631 0.0567355 0.991272
95 1 0.615953 0.837892 0.0289152
45 1 0.490339 0.885655 0.0542833
61 1 0.737686 0.774635 0.0416839
40 1 0.954729 0.731849 0.0779299
997 2 0.831714 0.807563 0.999671
51 1 0.0537885 0.0179198 0.0425316
53 1 0.171278 0.0608481 0.112819
44 1 0.0206088 0.978501 0.105913
589 2 0.336323 0.327786 0.0988204
595 2 0.295335 0.164048 0.105062
17 1 0.337687 0.162946 0.0622991
513 2 0.30392 0.993066 0.0895587
558 2 0.403029 0.054141 0.121818
576 2 0.423783 0.217965 0.0934405
982 2 0.445398 0.0547573 0.0810041
554 2 0.558765 0.148016 0.0990329
60 1 0.574127 0.0338036 0.126581
498 1 0.702242 0.210234 0.0638838
528 2 0.820107 0.269171 0.0842184
41 1 0.856825 0.202703 0.137842
541 2 0.676237 0.0614135 0.075358
482 1 0.0911809 0.335552 0.0813712
546 2 0.0468158 0.11109 0.0906498
57 1 0.217774 0.403881 0.119619
552 2 0.426074 0.457983 0.0770312
89 1 0.248122 0.30665 0.067594
62 1 0.284006 0.494266 0.0850139
565 2 0.747177 0.411539 0.071328
561 2 0.56552 0.367942 0.0701308
590 2 0.662105 0.299739 0.100245
559 2 0.993103 0.428954 0.0581785
71 1 0.918779 0.279721 0.0480221
42 1 0.804903 0.343346 0.132852
109 1 0.974482 0.24374 0.0920382
575 2 0.0793783 0.479083 0.107632
594 2 0.114855 0.67289 0.0891136
28 1 0.264269 0.650617 0.0730568
9 1 0.370621 0.740357 0.0508763
533 2 0.388423 0.671294 0.0968286
538 2 0.373766 0.83476 0.0862274
15 1 0.58979 0.519987 0.086417
6 1 0.703423 0.635975 0.0964787
521 2 0.852663 0.510135 0.0793508
545 2 0.66123 0.602866 0.131126
547 2 0.558345 0.642579 0.107878
49 1 0.817366 0.661887 0.0687429
485 1 0.93436 0.392015 0.0967715
86 1 0.791013 0.781385 0.0950203
35 1 0.945859 0.561264 0.0485147
65 1 0.071881 0.71319 0.0520267
7 1 0.227729 0.796002 0.0639596
542 2 0.153475 0.961376 0.073225
10 1 0.0487513 0.861521 0.0547378
468 1 0.480037 0.923417 0.0998617
537 2 0.506654 0.746899 0.0788078
38 1 0.298353 0.881392 0.117612
509 2 0.337802 0.911685 0.0543045
525 2 0.629508 0.930691 0.0984847
524 2 0.657384 0.792081 0.0749296
604 2 0.633884 0.780346 0.111785
534 2 0.770671 0.914582 0.0759782
39 1 0.915302 -0.000315077 0.0665703
104 1 0.897609 0.881302 0.0945307
88 1 0.863561 0.129844 0.089822
581 2 0.0479836 0.167673 0.130888
599 2 0.112181 0.0854432 0.158519
120 1 0.0524737 0.255643 0.18393
587 2 0.256477 0.159524 0.145023
671 2 0.406498 0.0824691 0.160696
99 1 0.397332 0.932131 0.152638
566 2 0.827802 0.0631858 0.132026
486 1 0.669195 0.14149 0.137489
117 1 0.771109 0.0652206 0.17622
90 1 0.457209 0.234305 0.130577
157 1 0.688942 0.229458 0.1709
577 2 0.943741 0.1092 0.167316
54 1 0.94922 0.0840129 0.205077
569 2 0.952778 0.321904 0.152753
539 2 0.161935 0.231286 0.110072
82 1 0.119387 0.497222 0.173206
76 1 0.0177439 0.332395 0.119479
535 2 0.140201 0.277251 0.145632
105 1 0.365369 0.350437 0.138194
50 1 0.266426 0.435994 0.16138
556 2 0.397587 0.513947 0.113408
56 1 0.495125 0.364642 0.106414
557 2 0.492528 0.32868 0.167003
64 1 0.613903 0.335736 0.135339
981 2 0.736428 0.431227 0.107588
93 1 0.0046233 0.460768 0.142944
1 1 0.921226 0.283833 0.199944
564 2 0.781185 0.368929 0.176162
985 2 0.243527 0.749041 0.114296
638 2 0.0527597 0.617291 0.128508
97 1 0.00689032 0.753963 0.115409
144 1 0.18591 0.632258 0.151156
78 1 0.208741 0.58556 0.110776
116 1 0.344504 0.638137 0.131072
519 2 0.549066 0.482619 0.132821
80 1 0.669766 0.45804 0.15828
598 2 0.505534 0.655555 0.145711
91 1 0.552066 0.538568 0.173827
113 1 0.738006 0.606815 0.165999
77 1 0.818749 0.581753 0.115715
636 2 0.0249804 0.670023 0.171699
83 1 0.913589 0.63764 0.147257
141 1 0.975128 0.580865 0.0882816
14 1 0.662278 0.790793 0.150215
150 1 0.858545 0.469619 0.149051
98 1 0.141382 0.92889 0.141805
107 1 0.132158 0.863096 0.101177
963 2 0.971947 0.916599 0.142505
74 1 0.195843 0.887888 0.180357
11 1 0.271541 0.81166 0.156652
551 2 0.414333 0.773786 0.12442
72 1 0.269102 0.0251925 0.161942
971 2 0.512556 0.812569 0.169897
59 1 0.576138 0.972768 0.165734
21 1 0.544184 0.890841 0.136848
540 2 0.706037 0.943395 0.151883
550 2 0.760874 0.913324 0.116554
118 1 0.885118 0.953329 0.171562
517 2 0.833874 0.80313 0.135312
108 1 0.789359 0.765812 0.178657
127 1 0.0536752 0.195911 0.218901
572 2 0.209232 0.190562 0.185529
543 2 0.353761 0.246487 0.165374
112 1 0.29969 0.947611 0.202502
101 1 0.334139 0.105308 0.197665
607 2 0.416209 0.951851 0.231794
161 1 0.61194 0.0315185 0.199612
583 2 0.657785 0.191289 0.204905
592 2 0.55495 0.136298 0.165203
530 2 0.83385 0.214924 0.174588
580 2 0.971466 0.12673 0.249239
26 1 0.79739 0.164096 0.216354
630 2 0.701374 0.0774957 0.237425
585 2 0.246615 0.512633 0.197803
611 2 0.159054 0.368866 0.188989
608 2 0.150094 0.455232 0.233446
87 1 0.00418522 0.408555 0.18366
609 2 0.384116 0.410862 0.188147
84 1 0.450327 0.379107 0.22835
651 2 0.298191 0.360495 0.239559
100 1 0.736664 0.32016 0.217902
670 2 0.483554 0.166763 0.196725
647 2 0.602797 0.366965 0.194753
129 1 0.774851 0.358924 0.256785
957 2 0.0353585 0.369551 0.222881
621 2 0.879507 0.430792 0.210228
544 2 0.0111133 0.550405 0.203473
606 2 0.201686 0.612637 0.229004
66 1 0.11165 0.792708 0.148316
125 1 0.355413 0.572006 0.171006
665 2 0.142806 0.652078 0.19317
635 2 0.456463 0.511907 0.208241
998 2 0.721579 0.487227 0.197834
502 2 0.577115 0.568327 0.21142
570 2 0.481361 0.661898 0.191412
619 2 0.629446 0.768732 0.185517
622 2 0.818816 0.502012 0.242377
169 1 0.035594 0.682874 0.226967
642 2 0.871912 0.562762 0.184931
632 2 0.721631 0.643589 0.20964
596 2 0.892105 0.644034 0.241315
122 1 0.131193 0.0579007 0.205762
616 2 0.967927 0.780066 0.195747
613 2 0.0506821 0.851241 0.220446
593 2 0.388478 0.724977 0.161353
68 1 0.443797 1.00057 0.187744
562 2 0.208997 0.768542 0.210244
536 2 0.390734 0.831173 0.194156
586 2 0.544215 0.872219 0.205718
131 1 0.727708 0.924967 0.194527
102 1 0.910146 0.915276 0.216164
553 2 0.033618 0.922826 0.176578
578 2 0.0242204 0.989801 0.230378
615 2 0.820829 0.75891 0.214559
603 2 0.144135 0.112936 0.248896
667 2 0.0462174 0.110451 0.284486
610 2 0.183374 0.278864 0.224887
185 1 0.170672 0.997133 0.286439
618 2 0.0808953 0.284294 0.297546
140 1 0.261115 0.124779 0.27267
579 2 0.258494 0.986354 0.254627
623 2 0.454534 0.0511251 0.268587
183 1 0.316718 0.120022 0.234679
640 2 0.384649 0.152687 0.292194
653 2 0.512969 0.07574 0.230513
147 1 0.694511 0.974101 0.278179
138 1 0.524747 0.235025 0.278954
114 1 0.589769 0.254383 0.235735
628 2 0.877861 0.00852733 0.251809
110 1 0.771479 0.199307 0.25457
719 2 0.78724 0.0885902 0.338775
135 1 0.921247 0.211123 0.283505
582 2 0.0914619 0.269612 0.255011
166 1 0.206414 0.284941 0.28196
568 2 0.0896647 0.408991 0.26927
164 1 0.333525 0.273654 0.200894
627 2 0.428429 0.206495 0.241825
634 2 0.258726 0.432382 0.279492
148 1 0.440987 0.456224 0.266287
119 1 0.349763 0.300193 0.273538
55 1 0.672819 0.458556 0.233489
612 2 0.634657 0.3865 0.270291
567 2 0.940962 0.400164 0.264883
130 1 0.892737 0.267739 0.239856
160 1 0.866784 0.340086 0.295905
121 1 0.332158 0.525876 0.234365
591 2 0.150369 0.750154 0.256567
145 1 0.00110814 0.559784 0.251113
247 1 0.989555 0.715699 0.26384
697 2 0.144563 0.559321 0.269372
149 1 0.329653 0.692655 0.221833
672 2 0.474454 0.641954 0.298084
195 1 0.478835 0.444188 0.310548
115 1 0.413335 0.62488 0.258624
617 2 0.57561 0.576214 0.249204
155 1 0.604778 0.733278 0.226564
691 2 0.735032 0.536503 0.278926
675 2 0.953435 0.595339 0.284069
152 1 0.756936 0.691015 0.2508
648 2 0.888783 0.686465 0.314777
176 1 0.0146217 0.964961 0.272016
563 2 0.114707 0.826584 0.290614
128 1 0.12835 0.893555 0.252836
142 1 0.319702 0.74907 0.261252
103 1 0.504236 0.77471 0.284719
134 1 0.278423 0.852075 0.23912
201 1 0.405116 0.873141 0.262625
177 1 0.266616 0.86459 0.281018
626 2 0.594896 0.946121 0.237297
605 2 0.768136 0.887477 0.238563
69 1 0.448116 0.759759 0.239437
655 2 0.647294 0.81803 0.257634
124 1 0.547082 0.93192 0.275172
531 2 0.770707 0.741762 0.289398
111 1 0.93985 0.812327 0.291682
94 1 0.919914 0.839903 0.254748
81 1 0.756217 0.932156 0.315963
625 2 0.820541 0.884769 0.280767
652 2 0.0434738 0.138223 0.322774
690 2 0.163195 0.0382 0.337365
602 2 0.234564 0.119249 0.313405
151 1 0.326223 -0.00143655 0.293309
656 2 0.438053 0.142537 0.338154
224 1 0.355328 0.020011 0.333684
679 2 0.623207 0.106066 0.270488
238 1 0.481681 0.0436735 0.305987
202 1 0.571295 0.185589 0.324292
673 2 0.574484 0.15292 0.3649
601 2 0.892207 0.0335912 0.308982
699 2 0.780894 0.129286 0.287553
172 1 0.822254 0.0226988 0.380691
211 1 0.897022 0.212586 0.33206
662 2 0.923976 0.0321936 0.348187
649 2 0.155103 0.402311 0.319667
639 2 0.16781 0.505356 0.350303
620 2 0.310138 0.480529 0.323369
106 1 0.0786684 0.286829 0.334711
687 2 0.378504 0.360663 0.344675
137 1 0.27068 0.283301 0.31724
168 1 0.417531 0.268708 0.3151
126 1 0.521128 0.292547 0.352113
189 1 0.674788 0.233298 0.295097
194 1 0.735633 0.396294 0.302918
146 1 0.607483 0.329083 0.320226
716 2 0.648903 0.317799 0.369765
123 1 0.989485 0.403564 0.315922
179 1 0.973988 0.28729 0.384205
133 1 0.763025 0.345919 0.341556
629 2 0.696094 0.223811 0.335821
641 2 0.858315 0.49547 0.31129
170 1 0.901968 0.415804 0.355842
237 1 0.677438 0.453032 0.346503
664 2 0.99847 0.539301 0.339058
231 1 0.0452664 0.701932 0.308199
207 1 0.237421 0.67511 0.33229
682 2 0.336599 0.556203 0.284315
159 1 0.137821 0.548977 0.315242
624 2 0.420532 0.638495 0.340819
163 1 0.3459 0.753374 0.299605
637 2 0.633085 0.691436 0.279384
650 2 0.557787 0.540827 0.331462
703 2 0.597242 0.544897 0.289526
645 2 0.662934 0.598828 0.352577
178 1 0.0173534 0.497524 0.377995
154 1 0.724325 0.565316 0.314941
175 1 0.941673 0.73082 0.35956
153 1 0.0733178 0.823409 0.329975
614 2 0.188057 0.691506 0.29229
680 2 0.0261131 0.969307 0.318509
197 1 0.216234 0.883395 0.318957
658 2 0.538478 0.841658 0.329522
221 1 0.354663 0.840672 0.333944
696 2 0.61721 0.677031 0.316448
631 2 0.512525 0.0120974 0.348013
198 1 0.750523 0.75334 0.331354
724 2 0.6602 0.0444734 0.314505
209 1 0.651394 0.837471 0.295562
173 1 0.827606 0.717096 0.383625
588 2 0.850247 0.889384 0.361879
676 2 0.883432 0.837635 0.327841
240 1 0.162965 0.050063 0.385939
660 2 0.263731 0.948297 0.36057
236 1 0.218215 0.186974 0.350258
180 1 0.997971 0.159166 0.365842
659 2 0.00615879 0.149894 0.407051
181 1 0.284051 0.305042 0.400792
678 2 0.395993 0.227242 0.418278
257 1 0.34701 0.0495649 0.381271
190 1 0.657041 0.01898 0.377097
708 2 0.259556 0.973737 0.410196
686 2 0.512617 0.0605111 0.394238
187 1 0.688296 0.103671 0.414151
749 2 0.717321 0.148929 0.378046
698 2 0.721633 0.846929 0.375793
709 2 0.846125 0.144972 0.399944
689 2 0.797469 0.0853021 0.441632
710 2 0.146108 0.21137 0.381584
203 1 0.175672 0.373921 0.419071
720 2 0.296714 0.598888 0.361894
643 2 0.359428 0.189733 0.370629
677 2 0.288474 0.427822 0.375966
714 2 0.466438 0.3735 0.420334
669 2 0.440087 0.531981 0.394008
67 1 0.510824 0.228797 0.396053
188 1 0.555045 0.255997 0.44158
657 2 0.483064 0.385113 0.380068
666 2 0.728394 0.430538 0.388512
692 2 0.726274 0.256026 0.407965
165 1 0.857397 0.243065 0.432435
644 2 0.820761 0.262627 0.367038
191 1 0.870039 0.534576 0.388841
217 1 0.104405 0.359721 0.383715
700 2 0.100026 0.675303 0.347595
712 2 0.2272 0.694903 0.380719
156 1 0.131032 0.590344 0.407491
661 2 0.434341 0.503065 0.356722
725 2 0.446593 0.693716 0.392858
717 2 0.534539 0.682448 0.36048
143 1 0.577061 0.501485 0.377294
733 2 0.607208 0.739577 0.389599
158 1 0.980865 0.663466 0.394118
674 2 0.848657 0.57977 0.352344
206 1 0.833308 0.659278 0.419185
715 2 0.0564969 0.941015 0.357519
705 2 0.177258 0.829234 0.355077
225 1 0.212488 0.85 0.393541
212 1 0.348574 0.762981 0.366447
646 2 0.417822 0.913197 0.368275
741 2 0.560071 0.873777 0.367034
706 2 0.699009 0.812197 0.419798
633 2 0.672565 0.916235 0.344694
251 1 0.971908 0.966819 0.390212
246 1 0.0667267 0.799401 0.380237
654 2 0.126983 0.782432 0.423018
232 1 0.809772 0.94662 0.415465
321 1 0.130681 0.0564338 0.433149
792 2 0.202992 0.0232972 0.468758
285 1 0.15488 0.184078 0.470257
791 2 0.251266 0.138717 0.400963
233 1 0.278763 0.276486 0.450955
213 1 0.394038 0.0287621 0.441762
162 1 0.720558 0.247024 0.457857
182 1 0.530896 0.0727874 0.430712
738 2 0.725489 0.118374 0.486959
219 1 0.573808 0.158952 0.487746
184 1 0.00657141 0.127044 0.448144
193 1 0.859373 0.384702 0.444653
763 2 0.948101 0.00733496 0.434708
584 2 0.137594 0.21528 0.426033
239 1 0.00703245 0.310282 0.422389
736 2 0.127057 0.322006 0.455538
713 2 0.312519 0.429642 0.426102
688 2 0.294276 0.561438 0.40756
265 1 0.232584 0.308043 0.490244
216 1 0.42428 0.339832 0.460862
132 1 0.597492 0.449724 0.418076
218 1 0.596639 0.408858 0.459427
300 1 0.705803 0.368414 0.434816
260 1 0.443556 0.161385 0.45511
721 2 0.714346 0.325051 0.487721
234 1 0.887395 0.382334 0.407094
685 2 0.706762 0.508435 0.477744
723 2 0.997028 0.419329 0.458231
718 2 0.852918 0.456917 0.492854
261 1 0.165948 0.483494 0.440506
726 2 0.0683238 0.771692 0.461711
200 1 0.124731 0.635184 0.44222
762 2 0.306938 0.573524 0.442325
196 1 0.274959 0.751972 0.418253
222 1 0.277543 0.426657 0.466433
167 1 0.455521 0.622465 0.429149
227 1 0.552198 0.715542 0.466819
779 2 0.731571 0.595863 0.396739
220 1 0.569971 0.595984 0.407181
171 1 0.662726 0.668067 0.434032
255 1 0.591568 0.554964 0.458882
753 2 0.704923 0.701126 0.48807
737 2 0.0104557 0.488896 0.414283
701 2 0.985001 0.603418 0.439312
755 2 0.979558 0.737705 0.427532
693 2 0.726909 0.530064 0.440621
681 2 0.220296 0.890146 0.438556
205 1 0.0945296 0.912013 0.407965
746 2 0.0837264 0.938732 0.454521
296 1 0.221184 0.732549 0.462312
136 1 0.619611 0.961409 0.409975
199 1 0.43273 0.940308 0.41093
174 1 0.314063 0.899505 0.465738
707 2 0.398098 0.782986 0.444436
702 2 0.740092 0.915734 0.446158
223 1 0.552167 0.769938 0.428553
208 1 0.505581 0.9089 0.450461
772 2 0.918186 0.815153 0.397898
734 2 0.654386 0.0415443 0.456694
229 1 0.805194 0.752381 0.451018
684 2 0.897667 0.894688 0.454746
272 1 0.270174 0.15819 0.498333
711 2 0.042266 0.0462939 0.482352
242 1 0.996952 0.190386 0.494796
742 2 0.466491 0.0234663 0.485189
269 1 0.264155 0.117886 0.443947
228 1 0.370613 0.138477 0.531762
778 2 0.410748 0.219587 0.493887
235 1 0.680959 0.207652 0.523801
291 1 0.524373 0.156293 0.525418
683 2 0.830056 0.987769 0.476462
704 2 0.878161 0.14888 0.469973
789 2 0.834123 0.190185 0.526208
745 2 0.139814 0.461962 0.50291
215 1 0.0247898 0.379144 0.490214
259 1 0.323113 0.296928 0.519618
366 1 0.366065 0.401233 0.494814
258 1 0.223996 0.453198 0.533351
249 1 0.458603 0.337547 0.534692
289 1 0.748494 0.336235 0.54229
308 1 0.509258 0.404578 0.487685
767 2 0.980232 0.264444 0.460983
740 2 0.0506112 0.396843 0.529733
739 2 0.887471 0.464774 0.532157
186 1 0.00314264 0.542084 0.481763
804 2 0.854405 0.29707 0.487669
278 1 0.177134 0.596301 0.479377
695 2 0.437306 0.642098 0.47533
766 2 0.447144 0.595106 0.514848
267 1 0.284279 0.540309 0.498255
752 2 0.408279 0.745302 0.505355
823 2 0.590796 0.542124 0.49865
204 1 0.431424 0.502952 0.462684
754 2 0.723998 0.458466 0.518489
214 1 0.692128 0.625089 0.52433
722 2 0.852391 0.589042 0.459413
309 1 0.833953 0.632702 0.498985
668 2 0.814469 0.808331 0.489181
774 2 0.922819 0.709979 0.476101
284 1 0.985994 0.86266 0.485006
250 1 0.120622 0.72096 0.492801
747 2 0.170305 0.887687 0.486527
290 1 0.0655466 0.940421 0.526226
256 1 0.184383 0.831321 0.521568
735 2 0.275463 0.792929 0.496194
287 1 0.301836 0.983804 0.501969
279 1 0.456165 0.876008 0.489426
266 1 0.450878 0.984156 0.524113
727 2 0.649449 0.815873 0.463817
210 1 0.569162 0.720436 0.50756
824 2 0.614581 0.976083 0.490621
731 2 0.710626 0.829977 0.515912
865 2 0.768919 0.98539 0.512003
264 1 0.928644 0.0420403 0.509056
282 1 0.751867 0.0753249 0.548574
770 2 0.892536 0.888301 0.521316
728 2 0.28811 0.233188 0.557983
764 2 0.135968 0.144943 0.556974
243 1 0.178299 0.0286645 0.581015
757 2 0.136325 0.0693698 0.51195
310 1 0.241979 0.0388569 0.534321
348 1 0.471187 0.0953935 0.557068
751 2 0.326851 0.942151 0.565746
274 1 0.618516 0.0630385 0.576575
798 2 0.580096 0.250646 0.551419
758 2 0.491506 0.932857 0.572449
809 2 0.718032 0.205175 0.566915
277 1 0.885787 0.168882 0.562304
306 1 0.869788 0.0293302 0.585785
268 1 0.907468 0.187143 0.598466
286 1 0.00983157 0.0985711 0.580107
732 2 0.0097725 0.542905 0.526687
281 1 0.288292 0.114084 0.591703
357 1 0.168922 0.30726 0.546602
729 2 0.0516604 0.233693 0.530029
263 1 0.362199 0.452213 0.55597
694 2 0.494451 0.500134 0.542265
299 1 0.418422 0.265125 0.572024
320 1 0.58555 0.249614 0.589181
270 1 0.603371 0.327291 0.517926
761 2 0.684145 0.359164 0.574821
782 2 0.525968 0.41252 0.579027
759 2 0.960379 0.334672 0.553888
765 2 0.950337 0.484189 0.568451
811 2 0.155534 0.548136 0.556216
315 1 0.139622 0.676661 0.533645
244 1 0.0349733 0.673417 0.564054
302 1 0.0752814 0.406019 0.570217
748 2 0.31405 0.633102 0.532996
350 1 0.550962 0.797852 0.577133
275 1 0.637276 0.448365 0.549027
314 1 0.631995 0.753447 0.550567
322 1 0.48028 0.725583 0.544031
750 2 0.604066 0.597216 0.564973
785 2 0.939391 0.749378 0.510478
230 1 0.892361 0.649595 0.539577
744 2 0.78667 0.546737 0.561043
663 2 0.909914 0.839774 0.563658
295 1 0.916323 0.618275 0.584492
843 2 0.810826 0.736664 0.581637
780 2 0.0487725 0.798498 0.546534
793 2 0.00866231 0.936157 0.567883
743 2 0.218518 0.682453 0.569017
818 2 0.163235 0.906359 0.557518
832 2 0.35541 0.852835 0.529332
860 2 0.369128 0.793838 0.566471
288 1 0.546669 0.88417 0.532402
245 1 0.796562 0.762325 0.546418
273 1 0.63666 0.931029 0.564607
372 1 0.63452 0.0133242 0.529477
262 1 0.806333 0.928829 0.555232
822 2 0.998777 0.049254 0.544012
799 2 0.14406 0.119642 0.613054
803 2 0.251388 0.955528 0.61943
788 2 0.18092 0.240944 0.673706
304 1 0.0610177 0.254428 0.579632
280 1 0.00433183 0.0528358 0.619556
319 1 0.358672 0.0667925 0.622334
292 1 0.247526 0.141133 0.650806
276 1 0.384794 0.0736923 0.663314
794 2 0.458391 0.0676806 0.592581
335 1 0.762214 0.22088 0.603783
328 1 0.484826 0.1983 0.639063
374 1 0.494708 0.966703 0.637261
333 1 0.593578 0.105827 0.621713
817 2 0.874814 0.13787 0.630601
784 2 0.946708 0.0973457 0.662959
365 1 0.706196 0.0752402 0.645493
781 2 0.211116 0.243423 0.597518
871 2 0.170474 0.27692 0.632331
294 1 0.978998 0.391834 0.604034
303 1 0.0641468 0.550577 0.637318
845 2 0.0400883 0.237453 0.616579
341 1 0.310394 0.349566 0.58189
349 1 0.464328 0.287581 0.604533
825 2 0.337197 0.212757 0.619318
253 1 0.403538 0.495562 0.60791
254 1 0.561628 0.344119 0.634001
769 2 0.618278 0.466291 0.608073
293 1 0.593608 0.468499 0.651712
795 2 0.828932 0.475064 0.598842
311 1 0.700242 0.33808 0.61896
313 1 0.838385 0.333158 0.577302
271 1 0.851808 0.305443 0.631208
775 2 0.167157 0.698445 0.614234
814 2 0.16867 0.414285 0.597883
829 2 0.0638463 0.523184 0.594333
796 2 0.215266 0.706728 0.654133
850 2 0.0199559 0.65981 0.610873
283 1 0.256821 0.526509 0.584906
241 1 0.410293 0.611452 0.566453
368 1 0.27956 0.58766 0.620004
777 2 0.375279 0.674692 0.601364
790 2 0.708907 0.583742 0.601346
815 2 0.4719 0.585156 0.659462
226 1 0.535836 0.587201 0.605477
813 2 0.731025 0.531741 0.635687
776 2 0.905683 0.531887 0.628633
840 2 0.956024 0.396614 0.652865
797 2 0.833615 0.692809 0.616727
298 1 0.0834097 0.784998 0.584374
192 1 0.270082 0.811235 0.592598
864 2 0.0960242 0.941893 0.602847
800 2 0.0795786 0.151441 0.653198
874 2 0.295917 0.781996 0.627582
343 1 0.426508 0.837064 0.610585
327 1 0.133341 0.00554803 0.644274
783 2 0.759615 0.900811 0.598351
826 2 0.677014 0.786827 0.597026
325 1 0.574377 0.960393 0.604781
297 1 0.699713 0.91701 0.635501
849 2 0.553138 0.799648 0.626821
353 1 0.740457 0.0875747 0.599297
730 2 0.927751 0.80347 0.601118
326 1 0.847341 0.986724 0.625545
301 1 0.821962 0.828635 0.635427
863 2 0.260183 0.0995913 0.685462
807 2 0.0638949 0.129473 0.690986
930 2 0.105751 0.201424 0.722985
787 2 0.406798 0.180905 0.688797
376 1 0.55958 0.0606204 0.660711
801 2 0.547464 0.175578 0.692229
812 2 0.720011 0.0877486 0.686664
248 1 0.621528 0.214824 0.652648
773 2 0.754618 0.242788 0.702833
851 2 0.651036 0.83175 0.7153
331 1 0.964562 0.243128 0.656073
827 2 0.795158 0.20713 0.663553
397 1 0.891006 0.160594 0.698849
802 2 0.256161 0.392373 0.634787
345 1 0.0200299 0.279749 0.695044
334 1 0.111731 0.412888 0.640039
424 1 0.263597 0.492091 0.69258
838 2 0.347889 0.418028 0.669679
821 2 0.381693 0.340145 0.705467
891 2 0.333499 0.267588 0.66217
896 2 0.490847 0.347699 0.670405
364 1 0.405312 0.343359 0.636704
862 2 0.645136 0.324819 0.680764
324 1 0.743417 0.556801 0.675708
340 1 0.803652 0.411435 0.656109
370 1 0.855727 0.334679 0.689143
873 2 0.107727 0.416869 0.677046
760 2 0.340474 0.766089 0.680246
836 2 0.084296 0.625549 0.676934
379 1 0.0854219 0.820728 0.630183
842 2 0.19991 0.529534 0.654362
756 2 0.43823 0.706842 0.636401
819 2 0.408065 0.850957 0.651065
831 2 0.59795 0.630336 0.640101
317 1 0.464896 0.673713 0.693313
847 2 0.6116 0.520365 0.69908
886 2 0.64571 0.678434 0.677852
358 1 0.817016 0.706525 0.659831
332 1 0.975764 0.685621 0.648883
389 1 0.930996 0.697201 0.685599
423 1 0.924662 0.537222 0.676948
346 1 0.0382817 0.0227138 0.719219
252 1 0.0960024 0.793406 0.671961
900 2 0.118978 1.0005 0.685835
316 1 0.476152 0.829547 0.69797
869 2 0.230333 0.897799 0.655736
318 1 0.394068 0.941809 0.686633
808 2 0.684571 0.76245 0.647151
443 1 0.7665 0.830704 0.68641
909 2 0.547077 0.793843 0.665806
305 1 0.652793 0.921299 0.673788
342 1 0.894282 0.832599 0.669571
810 2 0.823041 0.989251 0.674089
854 2 0.964502 0.914774 0.637465
361 1 0.9616 0.96355 0.67998
771 2 0.278273 0.192779 0.720143
359 1 0.285591 0.142986 0.773058
416 1 0.194761 0.0597217 0.724494
861 2 0.199376 0.251042 0.755008
352 1 0.111133 0.0870094 0.760273
375 1 0.539667 0.955697 0.708415
408 1 0.38654 0.160804 0.741623
880 2 0.548944 0.114827 0.731037
859 2 0.66257 0.0432152 0.746529
449 1 0.79439 0.0981333 0.769272
377 1 0.883522 0.00221034 0.715829
830 2 0.933006 0.212957 0.732796
390 1 0.752705 0.124042 0.723818
380 1 0.946325 0.0458369 0.751215
848 2 0.198643 0.349677 0.70616
855 2 0.162616 0.432221 0.751851
362 1 0.321635 0.597378 0.674175
338 1 0.353384 0.297969 0.765236
858 2 0.300071 0.379168 0.738184
901 2 0.454128 0.488287 0.695956
872 2 0.770988 0.474123 0.70642
312 1 0.480901 0.277966 0.732606
834 2 0.625014 0.252483 0.726901
844 2 0.535292 0.374206 0.705371
935 2 0.555638 0.401701 0.762021
430 1 0.65769 0.417626 0.733174
386 1 0.0612696 0.353308 0.726067
387 1 0.991468 0.418447 0.78401
422 1 0.772235 0.273945 0.743469
893 2 0.915413 0.373225 0.730078
355 1 0.21761 0.655806 0.702136
839 2 0.129776 0.513617 0.710515
384 1 0.199126 0.588564 0.751278
892 2 0.010181 0.506664 0.745425
820 2 0.349451 0.611348 0.722507
877 2 0.415467 0.695071 0.772417
347 1 0.332162 0.737374 0.737766
910 2 0.449808 0.46604 0.736518
768 2 0.500174 0.60617 0.739055
360 1 0.869601 0.579352 0.73126
367 1 0.584206 0.693606 0.717274
391 1 0.68602 0.585661 0.749238
898 2 0.767345 0.658269 0.708012
875 2 1.00184 0.595618 0.709375
897 2 0.716316 0.743823 0.742964
846 2 0.0203931 0.917718 0.750394
473 1 0.195176 0.732668 0.746876
852 2 0.186947 0.889464 0.742268
398 1 0.0972788 0.829984 0.712886
330 1 0.0577373 0.651054 0.74486
867 2 0.249533 0.952051 0.69765
420 1 0.357405 0.898509 0.725197
924 2 0.364044 0.0548864 0.715033
833 2 0.475394 0.989233 0.742127
323 1 0.621024 0.878676 0.749045
396 1 0.462871 0.806923 0.751596
837 2 0.666419 0.985427 0.782333
307 1 0.690686 0.835105 0.77857
853 2 0.717823 0.965377 0.710286
339 1 0.80089 0.869114 0.737736
337 1 0.948782 0.849763 0.708819
882 2 0.860572 0.936805 0.767983
382 1 0.924033 0.719167 0.730984
921 2 0.183146 0.00928235 0.817856
954 2 0.163428 0.116298 0.844774
990 2 0.139019 0.144853 0.793719
457 1 0.0400759 0.187864 0.832564
483 1 0.0397216 0.0295798 0.831766
407 1 0.42583 0.18074 0.781852
828 2 0.576183 0.242495 0.762755
481 1 0.537511 0.0899267 0.769486
460 1 0.862966 0.167655 0.80738
434 1 0.699907 0.223881 0.783346
895 2 0.0322018 0.286828 0.761528
497 1 0.838185 0.23541 0.840033
356 1 0.995498 0.139093 0.794773
835 2 0.274654 0.474521 0.784434
984 2 0.254303 0.436549 0.828885
964 2 0.135947 0.356964 0.805707
429 1 0.30664 0.322473 0.804939
378 1 0.437667 0.402441 0.786679
889 2 0.717196 0.365507 0.77482
329 1 0.652601 0.510213 0.784165
405 1 0.612604 0.337544 0.796232
816 2 0.871829 0.273592 0.772408
806 2 0.736647 0.29793 0.816093
410 1 0.810459 0.432963 0.752548
413 1 0.844512 0.448323 0.794841
435 1 0.94894 0.295163 0.807156
942 2 0.0925187 0.720821 0.789568
441 1 0.0960158 0.522069 0.780881
879 2 0.254365 0.655888 0.783041
881 2 0.341901 0.559235 0.75496
841 2 0.403774 0.571053 0.807684
915 2 0.570317 0.707027 0.760124
381 1 0.618662 0.572375 0.845289
400 1 0.680115 0.68012 0.785992
414 1 0.809842 0.575871 0.773933
883 2 0.496486 0.554603 0.778198
917 2 0.543281 0.602049 0.809069
870 2 0.955729 0.603098 0.785019
972 2 0.896154 0.594144 0.837497
393 1 0.767267 0.587719 0.813594
404 1 0.859854 0.715114 0.813325
392 1 0.973543 0.792061 0.775241
411 1 0.147815 0.837458 0.776387
425 1 0.0971628 0.840372 0.808384
344 1 0.0137978 0.644765 0.819801
406 1 0.186707 0.993247 0.782103
363 1 0.332968 0.0107406 0.758547
412 1 0.346229 0.985929 0.799714
941 2 0.320713 0.823357 0.779369
22 1 0.273555 0.860246 0.815166
373 1 0.479565 0.935908 0.785521
383 1 0.564312 0.790036 0.794215
354 1 0.572817 0.937415 0.816255
920 2 0.68952 0.813284 0.82324
385 1 0.837956 0.719053 0.774405
899 2 0.012495 0.966355 0.787011
911 2 0.94784 0.836419 0.812066
421 1 0.795318 0.89006 0.804598
428 1 0.11404 0.980776 0.880869
866 2 0.212613 0.26521 0.875088
970 2 0.0640392 0.218047 0.888786
786 2 0.325891 0.161684 0.820952
452 1 0.49661 0.207972 0.869977
336 1 0.489299 0.0737293 0.811628
937 2 0.312455 0.013047 0.838692
403 1 0.349082 0.301972 0.856206
884 2 0.698567 0.0873912 0.820799
887 2 0.458201 0.0430489 0.86606
369 1 0.597417 0.983562 0.852739
904 2 0.828544 0.0841617 0.846732
956 2 0.977484 0.0977354 0.87286
868 2 0.697754 0.193241 0.861675
938 2 0.89467 0.00239847 0.819057
953 2 0.837389 0.253615 0.880911
30 1 0.849653 0.0995604 0.893021
928 2 0.190816 0.261203 0.83284
976 2 0.977892 0.313641 0.860777
934 2 0.113219 0.4366 0.844791
476 1 0.108834 0.376496 0.880631
857 2 0.456212 0.2571 0.835929
501 2 0.285854 0.446959 0.874694
32 1 0.524837 0.40507 0.863488
949 2 0.6251 0.301604 0.841498
450 1 0.570422 0.12867 0.838106
417 1 0.696571 0.441462 0.834003
960 2 0.673029 0.311704 0.88573
919 2 0.518016 0.423461 0.818446
876 2 0.869334 0.396852 0.827124
996 2 0.000505168 0.461692 0.819666
805 2 0.171234 0.55302 0.815603
905 2 0.053324 0.650218 0.861202
916 2 0.161626 0.521134 0.878361
912 2 0.139597 0.709781 0.830074
388 1 0.40245 0.444114 0.843061
932 2 0.475069 0.567429 0.852494
878 2 0.1792 0.648665 0.898867
894 2 0.298094 0.707559 0.831797
43 1 0.415081 0.730038 0.856332
395 1 0.663174 0.661602 0.879402
415 1 0.770698 0.644733 0.902228
975 2 0.66451 0.481845 0.876637
351 1 0.959133 0.765743 0.849075
933 2 0.780473 0.576497 0.866861
966 2 0.895067 0.680518 0.887886
944 2 0.959769 0.819655 0.897231
453 1 0.0412458 0.882598 0.85769
401 1 0.18692 0.913171 0.847384
462 1 0.429486 0.922114 0.836008
940 2 0.318889 0.853147 0.853371
469 1 0.421907 0.77484 0.813231
925 2 0.551436 0.729614 0.838287
445 1 0.511045 0.867388 0.870812
962 2 0.673072 0.846301 0.862139
856 2 0.770527 0.723339 0.846338
922 2 0.873389 0.908641 0.84979
461 1 0.798273 0.819737 0.879723
394 1 0.731695 0.954274 0.838631
459 1 0.0841776 0.338485 0.92501
914 2 0.164908 0.106566 0.899361
463 1 0.57121 0.21157 0.901607
923 2 0.306365 0.146352 0.864187
399 1 0.48179 0.102279 0.905033
991 2 0.327206 0.122167 0.914179
3 1 0.454877 0.224739 0.935759
950 2 0.638024 0.0805572 0.878863
993 2 0.651461 0.107622 0.917853
427 1 0.748032 0.2093 0.907924
442 1 0.995942 0.0926099 0.909972
945 2 0.914666 0.244124 0.919117
451 1 0.199982 0.239003 0.920068
419 1 0.938838 0.554811 0.927218
995 2 0.273214 0.28797 0.966432
479 1 0.0896082 0.301079 0.96227
418 1 0.219939 0.387594 0.913549
474 1 0.367999 0.35499 0.925189
446 1 0.341072 0.263473 0.896146
466 1 0.462042 0.50204 0.891666