ITEM: TIMESTEP
14680
ITEM: NUMBER OF ATOMS
1000
ITEM: BOX BOUNDS pp pp pp
0.0000000000000000e+00 6.2996052494743662e+00
0.0000000000000000e+00 6.2996052494743662e+00
0.0000000000000000e+00 2.5198420997897465e+01
ITEM: ATOMS id type xs ys zs
951 2 0.157187 0.108185 0.0245135
581 2 0.148644 0.22959 0.0496479
528 2 0.000944063 0.192729 0.0328533
498 1 0.0488738 0.0480714 0.0490247
571 2 0.378781 0.184395 0.00324234
526 2 0.294445 0.000638186 0.0130832
29 1 0.484403 0.998204 0.0104629
986 2 0.547012 0.195059 0.00897372
503 2 0.652283 0.340318 0.039854
918 2 0.880946 0.0737044 0.0279264
27 1 0.706246 0.169585 0.0104326
45 1 0.699154 0.0439917 0.0393815
71 1 0.894978 0.205658 0.987158
982 2 0.788782 0.197705 0.0512381
13 1 0.932735 0.340108 0.0141081
510 2 0.124169 0.355382 0.0696191
927 2 0.0792433 0.333306 0.026541
28 1 0.278711 0.358676 0.0401301
512 2 0.314443 0.203117 0.0464924
63 1 0.375407 0.515427 0.0374418
7 1 0.2396 0.517777 0.0719564
573 2 0.332144 0.366505 0.998509
511 2 0.465658 0.317743 0.0298464
505 2 0.479366 0.291137 0.979268
522 2 0.482647 0.458324 0.986902
574 2 0.586013 0.344143 0.00433936
477 1 0.760159 0.330359 0.0126853
73 1 0.7707 0.524274 0.0336711
487 1 0.900296 0.508341 0.0156775
85 1 0.10299 0.492785 0.029347
532 2 0.944748 0.5619 0.0528355
997 2 0.143697 0.771173 0.02902
987 2 0.110063 0.636291 0.0169936
558 2 0.485979 0.423316 0.0626083
9 1 0.246543 0.597637 0.0314996
56 1 0.4222 0.580575 0.0746986
552 2 0.509037 0.618308 0.0304581
33 1 0.597127 0.782145 0.0439359
520 2 0.655789 0.601294 0.0239312
6 1 0.693954 0.741 0.00898918
506 2 0.557919 0.591604 0.988714
49 1 0.789365 0.671264 0.0376619
524 2 0.857473 0.813001 0.0456487
494 1 0.125208 0.937818 0.0263415
525 2 0.982395 0.897512 0.041067
23 1 0.224106 0.910587 0.0571528
471 1 0.0220297 0.0448061 0.00787389
19 1 0.0350103 0.811106 0.0073589
12 1 0.443971 0.884485 0.0308555
947 2 0.413739 0.711098 0.0491056
455 1 0.473459 0.73558 0.0130469
48 1 0.288282 0.812077 0.035694
545 2 0.715328 0.886555 0.0476939
468 1 0.577821 0.966204 0.0433931
31 1 0.585205 0.87721 0.0044183
549 2 0.914604 0.928548 0.00245618
967 2 0.91555 0.121329 0.064612
488 1 0.837907 0.778269 0.0006996
57 1 0.105268 0.271658 0.117359
560 2 0.179546 0.0580782 0.0670735
977 2 0.918647 0.282101 0.0619192
546 2 0.0699837 0.21502 0.0814611
52 1 0.268614 0.16954 0.0842862
92 1 0.40981 0.166253 0.0737217
559 2 0.191828 0.0936699 0.110076
34 1 0.536318 0.275719 0.064766
577 2 0.26552 0.978823 0.0911249
17 1 0.616346 0.177633 0.0446915
516 2 0.542586 0.0990364 0.078778
565 2 0.655535 0.119828 0.108905
96 1 0.459518 0.141985 0.0374247
507 2 0.784951 0.111762 0.0818179
486 1 0.933166 0.210281 0.102017
42 1 0.741149 0.285478 0.0773295
550 2 0.00270549 0.0692308 0.100325
544 2 0.00884697 0.3693 0.0930955
957 2 0.992734 0.483432 0.12407
985 2 0.225278 0.348283 0.0988587
125 1 0.226488 0.537886 0.117891
65 1 0.0865535 0.521289 0.076889
527 2 0.378652 0.306314 0.0709674
78 1 0.361719 0.291517 0.111069
561 2 0.352769 0.457758 0.101336
521 2 0.64745 0.416243 0.0796724
79 1 0.55078 0.463875 0.0303453
533 2 0.680305 0.512766 0.10678
35 1 0.774709 0.524328 0.0719096
62 1 0.491077 0.377352 0.105632
529 2 0.787466 0.382023 0.0505221
485 1 0.994193 0.410454 0.0530555
41 1 0.848953 0.393447 0.0895657
523 2 0.122303 0.670311 0.0594055
963 2 0.185817 0.671015 0.100113
538 2 0.531983 0.527532 0.105372
547 2 0.428477 0.725779 0.0884629
551 2 0.375942 0.627654 0.11656
15 1 0.583977 0.608527 0.0704029
64 1 0.72894 0.727898 0.112153
86 1 0.779706 0.695035 0.0744327
37 1 0.987043 0.699041 0.0353794
77 1 0.947522 0.534572 0.0899681
40 1 0.859835 0.81948 0.093064
542 2 0.937661 0.726493 0.0685387
514 2 0.286614 0.702541 0.0728071
70 1 0.0769538 0.808976 0.0657609
555 2 0.115557 0.962121 0.0965536
139 1 0.190277 0.831634 0.0861802
537 2 0.358362 0.854868 0.0751275
548 2 0.341852 0.994978 0.054294
95 1 0.50838 0.866037 0.0640118
998 2 0.563083 0.752204 0.102136
598 2 0.616868 0.952596 0.083327
513 2 0.45566 0.930447 0.101105
534 2 0.688336 0.82174 0.0845414
502 2 0.663992 0.844103 0.123137
21 1 0.809194 0.991076 0.0623564
39 1 0.97263 0.931639 0.0785763
575 2 0.761916 0.937724 0.103631
539 2 0.080397 0.096264 0.1329
93 1 0.884208 0.167396 0.14357
589 2 0.198563 0.251632 0.149597
599 2 0.352459 0.133035 0.114865
88 1 0.216192 0.104777 0.162888
554 2 0.620828 0.270594 0.119166
90 1 0.598274 0.116546 0.184625
105 1 0.586595 0.151281 0.146808
566 2 0.72763 0.190032 0.152361
576 2 0.737118 0.387872 0.119954
541 2 0.78529 0.969754 0.141793
60 1 0.785935 0.225276 0.111858
26 1 0.783602 0.0744128 0.220352
11 1 0.11818 0.411392 0.136624
107 1 0.0179863 0.558454 0.160122
82 1 0.280563 0.396408 0.15908
101 1 0.320179 0.305147 0.190764
638 2 0.0333937 0.228357 0.153586
89 1 0.475453 0.234507 0.133578
595 2 0.396083 0.469203 0.140402
76 1 0.352518 0.252987 0.156555
100 1 0.716777 0.446078 0.157064
99 1 0.62524 0.303971 0.158284
557 2 0.55143 0.420936 0.148023
981 2 0.904978 0.321144 0.123054
1 1 0.987855 0.353234 0.170576
83 1 0.882972 0.50294 0.159863
590 2 0.836331 0.528779 0.115894
80 1 0.83538 0.319782 0.162681
517 2 0.886484 0.657745 0.152689
632 2 0.0586665 0.724238 0.170753
97 1 0.27365 0.716893 0.1372
553 2 0.0840907 0.656591 0.128454
87 1 0.171613 0.61526 0.163656
91 1 0.34386 0.576943 0.167445
509 2 0.4604 0.770097 0.127813
519 2 0.556285 0.637169 0.129966
587 2 0.577182 0.795161 0.15377
50 1 0.731117 0.601019 0.135042
144 1 0.488221 0.595095 0.161934
594 2 0.966934 0.690125 0.107082
615 2 0.825869 0.780197 0.177631
104 1 0.97003 0.768502 0.138299
597 2 0.209219 0.974242 0.135987
44 1 0.957469 0.928771 0.122077
122 1 0.0825465 0.837388 0.194566
578 2 0.0778732 0.981737 0.17275
53 1 0.0831802 0.872275 0.13893
98 1 0.0449264 0.818391 0.103978
38 1 0.286143 0.83723 0.117337
68 1 0.366687 0.00619162 0.13444
570 2 0.419452 0.896466 0.155204
971 2 0.536958 0.913647 0.129989
543 2 0.505575 0.0596081 0.118851
59 1 0.642931 0.0170989 0.155363
530 2 0.495552 0.00817665 0.176052
10 1 0.819567 0.813427 0.140463
540 2 0.732981 0.903169 0.176398
108 1 0.949815 0.891036 0.164861
583 2 0.115291 0.122555 0.187035
118 1 0.964576 0.0330659 0.152718
569 2 0.0827242 0.235214 0.206139
128 1 0.124542 0.0851914 0.225797
536 2 0.404434 0.0687018 0.219945
74 1 0.252191 0.13208 0.200045
112 1 0.396393 0.143564 0.183609
626 2 0.401607 0.233417 0.217131
607 2 0.565791 0.281011 0.208059
110 1 0.550825 0.142595 0.222551
157 1 0.71357 0.222927 0.189396
55 1 0.703261 0.193871 0.243034
117 1 0.798672 0.0773845 0.181214
109 1 0.950573 0.0708575 0.206964
102 1 0.849679 0.964933 0.203388
667 2 0.94709 0.0243341 0.243477
605 2 0.725119 0.952157 0.239576
601 2 0.824715 0.120691 0.255396
610 2 0.984273 0.172304 0.238838
54 1 0.157556 0.352646 0.180634
611 2 0.214275 0.348538 0.221799
535 2 0.00789956 0.355455 0.221508
609 2 0.281063 0.473168 0.197255
556 2 0.454201 0.552142 0.199498
531 2 0.57119 0.46256 0.223764
84 1 0.413335 0.396286 0.220176
671 2 0.477176 0.296413 0.172449
604 2 0.655473 0.400456 0.190962
585 2 0.835046 0.235251 0.216166
670 2 0.729975 0.34941 0.227411
623 2 0.784008 0.318721 0.261286
564 2 0.816913 0.407143 0.195944
150 1 0.719168 0.508383 0.223936
580 2 0.918312 0.207868 0.184272
161 1 0.944824 0.308529 0.255459
622 2 0.0682056 0.611932 0.198153
141 1 0.378516 0.760916 0.165475
116 1 0.631856 0.55277 0.178631
608 2 0.345121 0.5671 0.231638
606 2 0.224249 0.610101 0.201136
14 1 0.698239 0.718882 0.15551
635 2 0.492894 0.657469 0.243785
593 2 0.522211 0.695477 0.19432
94 1 0.740357 0.686684 0.211472
111 1 0.800307 0.57978 0.18745
582 2 0.974431 0.464401 0.197053
621 2 0.872014 0.450717 0.234702
169 1 0.082883 0.719234 0.223972
596 2 0.0603623 0.960454 0.217885
127 1 0.209906 0.969857 0.2003
120 1 0.24061 0.824845 0.197832
72 1 0.228479 0.860867 0.163018
613 2 0.341312 0.90794 0.217836
562 2 0.332982 0.00448115 0.174642
591 2 0.355109 0.740865 0.207187
66 1 0.61775 0.808132 0.193607
69 1 0.475916 0.858708 0.202357
572 2 0.602124 0.988169 0.20792
113 1 0.762336 0.824596 0.216164
563 2 0.9346 0.808579 0.211174
625 2 0.87151 0.900012 0.236905
603 2 0.287598 0.0380843 0.240925
119 1 0.202423 0.145203 0.272436
177 1 0.278618 0.011018 0.282145
176 1 0.0806727 0.00729279 0.264168
124 1 0.381656 0.133986 0.261899
138 1 0.535167 0.253052 0.246093
140 1 0.341529 0.323285 0.245332
579 2 0.550132 0.0177525 0.241577
151 1 0.712657 0.0412253 0.271961
183 1 0.541859 0.126686 0.280963
652 2 0.000304747 0.185713 0.284322
618 2 0.234843 0.336059 0.274439
135 1 0.169805 0.241147 0.244774
651 2 0.290255 0.464938 0.25916
586 2 0.47472 0.370869 0.262982
145 1 0.260097 0.290085 0.321315
612 2 0.375024 0.280478 0.285359
137 1 0.317172 0.415085 0.3019
592 2 0.744045 0.471527 0.265522
653 2 0.635792 0.366241 0.258882
675 2 0.614913 0.538924 0.25813
123 1 0.841148 0.400354 0.297141
126 1 0.682273 0.227808 0.282408
129 1 0.849355 0.226499 0.289036
630 2 0.995651 0.331609 0.294422
636 2 0.132735 0.465689 0.217654
620 2 0.220425 0.569607 0.282774
634 2 0.0367171 0.416492 0.266772
567 2 0.991148 0.552881 0.230468
166 1 0.132421 0.561963 0.247185
617 2 0.473077 0.511377 0.248506
142 1 0.227182 0.687445 0.23594
115 1 0.327935 0.651637 0.266773
247 1 0.260372 0.72775 0.307755
164 1 0.564376 0.693092 0.27649
67 1 0.723974 0.508955 0.300253
665 2 0.630752 0.634008 0.231306
619 2 0.73993 0.622888 0.28013
81 1 0.838766 0.592473 0.248309
642 2 0.919603 0.657813 0.196277
160 1 0.920977 0.505667 0.275496
158 1 0.917142 0.527649 0.311748
616 2 0.18472 0.903369 0.233447
121 1 0.153342 0.714006 0.272166
614 2 0.0356826 0.853969 0.24274
568 2 0.175542 0.88801 0.27987
134 1 0.402666 0.965615 0.255546
672 2 0.300183 0.794112 0.255522
149 1 0.587779 0.831802 0.234412
103 1 0.472308 0.794914 0.25894
131 1 0.691326 0.767064 0.28138
147 1 0.573087 0.93995 0.279425
647 2 0.746877 0.729727 0.248175
648 2 0.959428 0.712397 0.248543
628 2 0.851941 0.958847 0.272539
655 2 0.836473 0.814828 0.274697
185 1 0.176705 0.152972 0.325148
687 2 0.000664918 0.0703658 0.333866
602 2 0.417462 0.155229 0.310162
197 1 0.321587 0.0150044 0.322394
658 2 0.44038 0.994846 0.295336
640 2 0.544016 0.241593 0.305075
627 2 0.70402 0.148994 0.318742
190 1 0.608578 0.0234095 0.315731
719 2 0.677835 0.886181 0.326524
678 2 0.504165 0.12638 0.340138
172 1 0.00984291 0.0247855 0.297851
679 2 0.739167 0.927527 0.294917
662 2 0.860998 0.271804 0.326817
180 1 0.0213561 0.22876 0.324859
189 1 0.836654 0.0814993 0.30973
130 1 0.122314 0.455427 0.293992
656 2 0.217327 0.448134 0.328882
649 2 0.142609 0.266377 0.297107
220 1 0.228855 0.456594 0.369411
114 1 0.494278 0.393955 0.301878
168 1 0.414007 0.487835 0.349597
657 2 0.420417 0.341661 0.332055
637 2 0.635374 0.361156 0.296749
650 2 0.590616 0.404049 0.334238
699 2 0.781055 0.388029 0.33272
148 1 0.592813 0.54572 0.310182
639 2 0.9313 0.395758 0.336307
664 2 0.94253 0.259106 0.362175
641 2 0.0870272 0.599841 0.304488
691 2 0.14151 0.661249 0.335153
152 1 0.0286515 0.618363 0.271846
700 2 0.0106162 0.617349 0.345045
697 2 0.446089 0.550184 0.295773
146 1 0.471333 0.653813 0.327538
661 2 0.267453 0.588384 0.341204
171 1 0.527561 0.697677 0.361967
170 1 0.726575 0.53373 0.335957
673 2 0.808492 0.791635 0.314185
195 1 0.628887 0.722712 0.322851
629 2 0.0575005 0.476272 0.330274
191 1 0.907837 0.524106 0.366891
154 1 0.916979 0.693889 0.297514
155 1 0.852699 0.64836 0.334836
680 2 0.157075 0.0448077 0.298779
175 1 0.990241 0.747972 0.329277
231 1 0.103965 0.786129 0.301297
178 1 0.220548 0.890554 0.315346
682 2 0.0608601 0.908622 0.320846
624 2 0.418551 0.72942 0.293102
153 1 0.360149 0.869599 0.289482
163 1 0.42315 0.842646 0.327086
646 2 0.292994 0.949144 0.355729
720 2 0.291813 0.769343 0.342999
696 2 0.541865 0.814942 0.298978
202 1 0.898728 0.921913 0.306861
724 2 0.593351 0.820929 0.351046
238 1 0.597725 0.984613 0.365224
588 2 0.998355 0.882996 0.279151
676 2 0.814846 0.803303 0.350136
159 1 0.931673 0.916272 0.344187
179 1 0.17425 0.228138 0.359003
201 1 0.319218 0.156385 0.340257
677 2 0.145232 0.0051917 0.331635
211 1 0.0429739 0.208781 0.410365
706 2 0.431422 0.0162288 0.360887
188 1 0.299399 0.168871 0.382205
187 1 0.570251 0.12613 0.380942
136 1 0.432882 0.246363 0.358117
162 1 0.414013 0.115596 0.404011
698 2 0.688817 0.102563 0.356809
686 2 0.578041 0.263627 0.346133
716 2 0.711654 0.175562 0.394312
133 1 0.749608 0.235277 0.350349
690 2 0.977837 0.0766015 0.375512
749 2 0.855887 0.10826 0.343993
705 2 0.808805 0.027886 0.377661
681 2 0.00273922 0.0182936 0.415549
584 2 0.0833895 0.351422 0.369445
106 1 0.0911103 0.34681 0.406052
167 1 0.306381 0.339666 0.355479
736 2 0.270649 0.369541 0.394459
132 1 0.363065 0.522454 0.392224
143 1 0.417067 0.389636 0.380131
643 2 0.656585 0.434067 0.371921
217 1 0.784012 0.475189 0.399837
156 1 0.98707 0.497594 0.398003
194 1 0.815369 0.372818 0.369393
165 1 0.857735 0.194667 0.397321
710 2 0.932567 0.35557 0.394969
207 1 0.138881 0.672671 0.374178
688 2 0.159943 0.539461 0.400812
203 1 0.11987 0.717767 0.413603
199 1 0.270524 0.675258 0.401443
645 2 0.359737 0.646858 0.373737
223 1 0.415493 0.733339 0.399981
237 1 0.512908 0.501721 0.378704
692 2 0.628041 0.400111 0.408266
631 2 0.580407 0.569676 0.347674
198 1 0.70044 0.732351 0.367587
173 1 0.589819 0.651719 0.404472
644 2 0.718728 0.581834 0.381095
674 2 0.863741 0.688714 0.375219
666 2 0.788087 0.691519 0.40918
196 1 0.0885634 0.523956 0.368488
737 2 0.986006 0.678665 0.397888
225 1 0.15028 0.815542 0.347658
660 2 0.0839122 0.95949 0.363451
212 1 0.162392 0.838461 0.391705
182 1 0.311763 0.0129524 0.390999
702 2 0.476798 0.950453 0.394113
221 1 0.307584 0.803508 0.379708
725 2 0.470435 0.863213 0.364023
633 2 0.679655 0.00525322 0.399949
703 2 0.779512 0.968769 0.344946
229 1 0.592178 0.809537 0.398422
717 2 0.714091 0.883227 0.371101
654 2 0.915955 0.930488 0.385927
200 1 0.00835764 0.787428 0.366847
209 1 0.802456 0.836885 0.403291
181 1 0.136456 0.0815542 0.396584
251 1 0.00968537 0.963675 0.459347
321 1 0.105754 0.122186 0.440935
213 1 0.285229 0.138953 0.422881
236 1 0.20418 0.977715 0.413711
234 1 0.477555 0.225773 0.432552
257 1 0.318721 0.988018 0.433965
208 1 0.494362 0.0796177 0.452097
284 1 0.20359 0.00451457 0.457177
718 2 0.755098 0.197109 0.435979
233 1 0.581916 0.118865 0.419372
684 2 0.704676 0.0346584 0.445057
715 2 0.925433 0.131128 0.461894
767 2 0.941825 0.261299 0.477254
689 2 0.845983 0.0857941 0.426976
659 2 0.911426 0.22593 0.43196
244 1 0.951044 0.416678 0.474464
265 1 0.196877 0.263719 0.432526
184 1 0.0422309 0.260904 0.449141
261 1 0.992237 0.404853 0.433404
732 2 0.0839128 0.358361 0.477022
763 2 0.16178 0.196937 0.479277
669 2 0.373831 0.268881 0.406863
242 1 0.175548 0.463081 0.446364
792 2 0.343834 0.32182 0.447389
747 2 0.346018 0.118353 0.466082
216 1 0.701892 0.466344 0.443154
714 2 0.462228 0.393793 0.421545
239 1 0.605458 0.30839 0.441997
193 1 0.5504 0.285541 0.397014
709 2 0.731134 0.30868 0.404284
240 1 0.806796 0.369003 0.434435
186 1 0.0431339 0.574313 0.427315
296 1 0.257968 0.609695 0.43634
745 2 0.13215 0.656838 0.451401
712 2 0.252117 0.789749 0.428803
713 2 0.317544 0.467784 0.428707
707 2 0.441001 0.621477 0.428869
255 1 0.548718 0.608928 0.455839
723 2 0.690402 0.614277 0.433551
779 2 0.571626 0.516683 0.422523
204 1 0.685815 0.453606 0.480459
693 2 0.905385 0.63471 0.466971
275 1 0.8812 0.516706 0.433838
246 1 0.813649 0.719691 0.448438
222 1 0.96351 0.749654 0.443276
205 1 0.0171434 0.844636 0.413455
746 2 0.135532 0.875454 0.441549
741 2 0.363895 0.870663 0.414744
214 1 0.487009 0.804789 0.464044
708 2 0.369809 0.71357 0.455841
232 1 0.499493 0.903295 0.431884
174 1 0.549519 0.751304 0.430273
683 2 0.609419 0.896914 0.464478
206 1 0.676914 0.826314 0.429977
727 2 0.626656 0.729925 0.474528
755 2 0.921623 0.839983 0.475567
224 1 0.871116 0.93043 0.427789
772 2 0.844516 0.994453 0.469285
210 1 0.268722 0.918744 0.500229
791 2 0.0710199 0.0818901 0.477952
290 1 0.143245 0.11154 0.520503
235 1 0.340205 0.122534 0.510149
757 2 0.217817 0.0596941 0.493129
733 2 0.410693 0.967748 0.47118
264 1 0.638689 0.14519 0.462034
804 2 0.659653 0.0959029 0.512566
309 1 0.545632 0.0339396 0.486243
738 2 0.46797 0.199367 0.481552
778 2 0.533833 0.1471 0.51704
215 1 0.773043 0.131844 0.474924
729 2 0.835582 0.0463945 0.524327
308 1 0.859883 0.16948 0.544861
711 2 0.951307 0.161927 0.513722
192 1 0.0235121 0.441635 0.514971
695 2 0.250594 0.382184 0.473092
315 1 0.166623 0.434325 0.501988
249 1 0.422517 0.464791 0.492991
259 1 0.302841 0.378971 0.513268
269 1 0.321963 0.262768 0.482998
721 2 0.719382 0.355838 0.511962
219 1 0.505878 0.338636 0.483574
685 2 0.825333 0.487644 0.471253
734 2 0.65102 0.249658 0.490282
739 2 0.793989 0.303929 0.468481
260 1 0.861341 0.395442 0.504645
740 2 0.0728348 0.269538 0.506908
262 1 0.946573 0.583239 0.504547
278 1 0.210503 0.687182 0.487447
762 2 0.115403 0.548089 0.473038
766 2 0.346173 0.579835 0.472682
785 2 0.125828 0.586233 0.511301
227 1 0.475423 0.648112 0.488305
218 1 0.473905 0.466495 0.454209
266 1 0.448688 0.742329 0.532503
722 2 0.710983 0.601924 0.472729
228 1 0.586821 0.483086 0.508661
694 2 0.633849 0.559003 0.542837
300 1 0.58956 0.636185 0.510566
663 2 0.856988 0.718741 0.497877
754 2 0.912202 0.692672 0.5349
701 2 0.0400848 0.67709 0.48381
314 1 0.715351 0.718426 0.506814
230 1 0.780597 0.57657 0.505466
735 2 0.273895 0.864351 0.460627
726 2 0.113318 0.88413 0.482039
793 2 0.157203 0.796578 0.526107
799 2 0.141781 0.971031 0.518667
780 2 0.326597 0.905314 0.551351
731 2 0.429578 0.895211 0.515862
752 2 0.372747 0.782246 0.496089
753 2 0.563984 0.835792 0.50938
704 2 0.710342 0.972245 0.496943
250 1 0.955227 0.978767 0.499448
668 2 0.849648 0.878594 0.511112
774 2 0.752941 0.831708 0.473009
770 2 0.00833399 0.831401 0.514381
272 1 0.23618 0.234618 0.521911
781 2 0.206947 0.179078 0.561677
281 1 0.0649563 0.020423 0.577173
294 1 0.048578 0.190027 0.545753
287 1 0.274763 0.0608732 0.539255
742 2 0.330078 0.264919 0.5495
310 1 0.388369 0.138123 0.572951
348 1 0.554365 0.0687759 0.569817
289 1 0.596097 0.97298 0.539611
809 2 0.667249 0.147266 0.553129
824 2 0.745507 0.989951 0.5528
277 1 0.807812 0.164636 0.582215
758 2 0.694923 0.0483527 0.587804
243 1 0.000454026 0.044315 0.531124
789 2 0.875812 0.0242672 0.56979
295 1 0.100456 0.360739 0.541688
349 1 0.0228572 0.3699 0.584276
728 2 0.250835 0.393773 0.555552
267 1 0.178344 0.525967 0.555759
298 1 0.132564 0.467903 0.592143
263 1 0.492989 0.247377 0.56166
769 2 0.531047 0.525397 0.600024
366 1 0.430963 0.407968 0.540431
744 2 0.743673 0.478313 0.536369
759 2 0.787623 0.192096 0.509203
285 1 0.44673 0.27628 0.518648
270 1 0.606429 0.267408 0.533536
274 1 0.745207 0.459651 0.584765
761 2 0.789159 0.316278 0.54763
765 2 0.930712 0.322097 0.546829
776 2 0.897989 0.43751 0.569326
797 2 0.0281153 0.483656 0.554456
811 2 0.074616 0.621734 0.58498
283 1 0.206992 0.71581 0.569996
748 2 0.463918 0.583978 0.525024
299 1 0.366234 0.507266 0.564527
775 2 0.372335 0.662699 0.564876
258 1 0.293112 0.55205 0.510311
322 1 0.513655 0.604004 0.564204
254 1 0.575389 0.408788 0.559442
273 1 0.665954 0.605906 0.581171
790 2 0.90321 0.533519 0.539262
245 1 0.766005 0.636292 0.54357
306 1 0.784534 0.823832 0.55457
795 2 0.912112 0.57912 0.578106
280 1 0.248366 0.0280126 0.582104
256 1 0.0941626 0.863523 0.567155
751 2 0.296889 0.73016 0.52857
796 2 0.25098 0.835121 0.593817
798 2 0.432953 0.0401068 0.540598
279 1 0.492328 0.88507 0.551754
350 1 0.56575 0.762012 0.586316
823 2 0.606712 0.718782 0.548413
282 1 0.706069 0.880868 0.523728
297 1 0.777937 0.914586 0.594808
730 2 0.0633472 0.699853 0.54151
865 2 0.912382 0.901489 0.545889
802 2 0.212363 0.0830074 0.615542
302 1 0.100149 0.164323 0.597494
771 2 0.19999 0.195395 0.641956
291 1 0.956602 0.91258 0.585264
252 1 0.0873767 0.907161 0.665037
832 2 0.39005 0.104143 0.620961
319 1 0.503776 0.219911 0.603832
292 1 0.388068 0.268888 0.626524
374 1 0.658521 0.944176 0.613625
268 1 0.667685 0.2031 0.606123
803 2 0.555742 0.0497989 0.610491
784 2 0.938085 0.0444714 0.60783
301 1 0.789139 0.0533323 0.624647
808 2 0.892084 0.797282 0.606022
810 2 0.060424 0.0233053 0.626605
332 1 0.91122 0.925131 0.628799
788 2 0.262113 0.227211 0.602791
782 2 0.140591 0.304196 0.62338
357 1 0.1641 0.310277 0.583377
764 2 0.34787 0.342766 0.583103
293 1 0.398071 0.476469 0.605784
248 1 0.500714 0.353612 0.636843
341 1 0.271788 0.396167 0.617344
794 2 0.503993 0.367687 0.594642
311 1 0.646271 0.290938 0.57107
845 2 0.744652 0.347087 0.617999
335 1 0.629856 0.405416 0.666504
328 1 0.617066 0.424081 0.619502
286 1 0.961668 0.224644 0.593901
320 1 0.816403 0.32793 0.584482
817 2 0.8321 0.20431 0.628938
331 1 0.902439 0.347243 0.613257
840 2 0.833162 0.580847 0.657157
814 2 0.186606 0.51946 0.632044
891 2 0.0275975 0.420176 0.62742
825 2 0.0319051 0.581435 0.618473
860 2 0.20816 0.663963 0.623721
288 1 0.397853 0.6443 0.609916
253 1 0.312216 0.69012 0.65643
368 1 0.241218 0.57939 0.587914
862 2 0.361586 0.508319 0.641566
241 1 0.577065 0.651308 0.615929
325 1 0.720042 0.751919 0.585528
813 2 0.686109 0.625159 0.641641
343 1 0.471302 0.669651 0.644249
303 1 0.763731 0.480958 0.633057
313 1 0.902659 0.507696 0.608772
750 2 0.783485 0.629482 0.609884
800 2 0.136799 0.930495 0.603124
822 2 0.0984814 0.755226 0.600235
842 2 0.206363 0.791482 0.642783
777 2 0.402866 0.806799 0.582688
372 1 0.417175 0.0060424 0.590942
743 2 0.354585 0.783933 0.626343
760 2 0.314627 0.95101 0.615089
756 2 0.398652 0.902214 0.651927
326 1 0.559648 0.91578 0.588723
818 2 0.500968 0.822958 0.620182
783 2 0.638449 0.871401 0.560557
324 1 0.653109 0.808583 0.630562
850 2 0.0299488 0.829758 0.626921
271 1 0.917657 0.669676 0.630644
843 2 0.953622 0.72838 0.574283
807 2 0.0705959 0.0953784 0.659734
347 1 0.177759 0.856566 0.691627
416 1 0.148934 0.223713 0.682806
377 1 0.944964 0.105025 0.689578
787 2 0.320016 0.185366 0.6775
323 1 0.186889 0.109207 0.749051
342 1 0.591984 0.233599 0.676848
333 1 0.482027 0.181812 0.645047
376 1 0.703609 0.182277 0.643382
353 1 0.66486 0.0546955 0.695654
304 1 0.746605 0.0297588 0.665716
846 2 0.922042 0.931943 0.669252
305 1 0.922559 0.0679964 0.645268
827 2 0.813144 0.177512 0.671461
812 2 0.241562 0.321346 0.667363
861 2 0.106039 0.381496 0.665585
424 1 0.155901 0.467072 0.698563
387 1 0.978696 0.432654 0.679257
226 1 0.572692 0.529978 0.644843
834 2 0.402919 0.360657 0.668516
900 2 0.357953 0.385009 0.701857
365 1 0.992883 0.269589 0.677154
390 1 0.715793 0.270539 0.699952
859 2 0.5091 0.419751 0.699089
345 1 0.891933 0.439874 0.648719
871 2 0.991151 0.227162 0.63692
848 2 0.133888 0.491026 0.743243
815 2 0.306187 0.81725 0.679681
821 2 0.0758527 0.701277 0.650292
836 2 0.176237 0.618392 0.675258
896 2 0.159607 0.596815 0.718816
801 2 0.284031 0.488745 0.67317
831 2 0.307131 0.573854 0.704409
847 2 0.443201 0.756405 0.672584
768 2 0.462072 0.591036 0.67975
816 2 0.785964 0.31705 0.663111
773 2 0.602677 0.728599 0.672922
355 1 0.902695 0.67994 0.687143
340 1 0.675782 0.547462 0.676062
838 2 0.0549324 0.522948 0.65698
839 2 0.832995 0.497237 0.686909
855 2 0.0140983 0.578792 0.699759
423 1 0.739835 0.659023 0.69367
396 1 0.330647 0.762302 0.712169
867 2 0.216839 0.945724 0.647698
864 2 0.928437 0.796903 0.656504
317 1 0.2716 0.964793 0.688566
346 1 0.216526 0.0888799 0.674403
873 2 0.518253 0.777002 0.705827
874 2 0.433952 0.0666412 0.668246
872 2 0.444866 0.652759 0.716112
819 2 0.561932 0.877771 0.661878
276 1 0.600333 0.0164909 0.658262
358 1 0.660166 0.884323 0.687027
327 1 0.444509 0.920486 0.686377
849 2 0.763714 0.878765 0.648191
826 2 0.793596 0.727826 0.641172
330 1 0.820059 0.00433252 0.698306
379 1 0.955138 0.832028 0.700225
833 2 0.187536 0.941439 0.764578
876 2 0.0835064 0.233587 0.7852
863 2 0.132191 0.0229178 0.700624
307 1 0.445017 0.10738 0.75054
389 1 0.795316 0.879598 0.720115
882 2 0.707941 0.0966709 0.734932
837 2 0.566768 0.158615 0.713617
854 2 0.515171 0.0249775 0.71812
352 1 0.96705 0.927962 0.777688
879 2 0.0671629 0.0210967 0.740955
930 2 0.918054 0.0835743 0.737047
869 2 0.977113 0.974018 0.705589
830 2 0.945126 0.294546 0.744803
361 1 0.0607863 0.163851 0.710975
857 2 0.199566 0.525468 0.785297
386 1 0.072937 0.334124 0.705975
338 1 0.243469 0.272632 0.709368
851 2 0.2685 0.396945 0.734554
359 1 0.118214 0.262653 0.741528
339 1 0.434366 0.213757 0.698555
408 1 0.34451 0.21012 0.732282
373 1 0.377455 0.332994 0.751525
449 1 0.657269 0.316072 0.730575
898 2 0.694288 0.592724 0.736893
375 1 0.525173 0.428334 0.738153
853 2 0.835475 0.194356 0.714556
410 1 0.982309 0.459575 0.726472
385 1 0.706751 0.450271 0.708591
370 1 0.867948 0.360476 0.713983
460 1 0.797639 0.384866 0.754091
362 1 0.307366 0.678767 0.745417
312 1 0.167537 0.661534 0.764541
473 1 0.0478917 0.714343 0.733288
364 1 0.380586 0.522488 0.73533
367 1 0.468085 0.673427 0.757657
844 2 0.584007 0.562819 0.710968
360 1 0.623397 0.622935 0.768438
909 2 0.414445 0.800279 0.742278
430 1 0.590658 0.77374 0.756185
972 2 0.850774 0.539969 0.765223
404 1 0.784173 0.692338 0.753314
875 2 0.844184 0.566324 0.724621
411 1 0.938238 0.673232 0.759996
829 2 0.0991218 0.714621 0.692636
881 2 0.101337 0.87264 0.724321
805 2 0.064651 0.790931 0.763343
841 2 0.176196 0.774768 0.740317
820 2 0.240465 0.932126 0.730008
316 1 0.325568 0.0847097 0.707764
318 1 0.384945 0.94219 0.722824
886 2 0.651825 0.921214 0.729107
897 2 0.299588 0.836824 0.759739
852 2 0.319758 0.0190635 0.782318
397 1 0.656797 0.74908 0.718547
354 1 0.654746 0.0106001 0.772799
384 1 0.874764 0.710163 0.720323
334 1 0.798856 0.824004 0.685932
398 1 0.950892 0.869988 0.737996
786 2 0.222084 0.0899387 0.813426
413 1 0.106634 0.228711 0.8241
880 2 0.135994 0.0662709 0.784801
916 2 0.101765 0.0741322 0.835375
369 1 0.377404 0.129719 0.813795
363 1 0.29954 0.167561 0.770893
443 1 0.529062 0.249517 0.752985
984 2 0.436539 0.275853 0.796094
895 2 0.786398 0.103238 0.769843
884 2 0.694964 0.242929 0.765792
920 2 0.691608 0.0175435 0.811889
412 1 0.577672 0.183559 0.78816
429 1 0.711473 0.174634 0.812128
892 2 0.843526 0.984054 0.756416
990 2 0.96569 0.112589 0.774028
964 2 0.855233 0.083325 0.801847
417 1 0.811037 0.26006 0.824234
835 2 0.226679 0.313624 0.772738
378 1 0.266007 0.381214 0.804388
393 1 0.092869 0.370263 0.81655
932 2 0.176716 0.502839 0.829095
441 1 0.0925451 0.401207 0.776843
889 2 0.564769 0.370367 0.780498
828 2 0.337559 0.458223 0.772013
910 2 0.45118 0.427287 0.803022
414 1 0.808624 0.437734 0.794996
935 2 0.606912 0.50605 0.8042
422 1 0.639971 0.472043 0.764804
462 1 0.676161 0.324051 0.805715
329 1 0.868357 0.233257 0.779999
893 2 0.944847 0.41331 0.770393
806 2 0.962396 0.295088 0.801306
351 1 0.956686 0.46432 0.81495
371 1 0.155745 0.63298 0.807836
392 1 0.153671 0.742049 0.835462
344 1 0.0233874 0.716757 0.796161
901 2 0.459141 0.55399 0.782957
400 1 0.467101 0.791729 0.782689
858 2 0.3414 0.675822 0.787755
915 2 0.494683 0.549497 0.827747
917 2 0.615898 0.767109 0.836402
391 1 0.555727 0.683076 0.802223
381 1 0.740978 0.57285 0.793464
919 2 0.697 0.744192 0.791385
912 2 0.0518174 0.575946 0.782524
856 2 0.894187 0.614553 0.806496
877 2 0.192128 0.803166 0.782893
942 2 0.202749 0.943597 0.803016
420 1 0.0787188 0.856635 0.805313
924 2 0.48969 0.0689907 0.79736
941 2 0.355558 0.870548 0.798345
383 1 0.432163 0.752232 0.820324
337 1 0.483064 0.966786 0.764134
421 1 0.649478 0.882326 0.796066
356 1 0.824584 0.933617 0.791963
922 2 0.742068 0.859221 0.835536
870 2 0.724779 0.869795 0.762356
921 2 0.00807921 0.0107824 0.804673
899 2 0.869089 0.798353 0.781009
457 1 0.961475 0.148332 0.829729
954 2 0.0411119 0.127975 0.868394
968 2 0.248789 0.181052 0.8548
428 1 0.00179317 0.990642 0.881551
476 1 0.281087 0.228139 0.806941
380 1 0.560213 0.257533 0.829839
403 1 0.310068 0.0360709 0.88519
949 2 0.573635 0.174219 0.864929
928 2 0.448626 0.0210555 0.866421
976 2 0.779351 0.0102009 0.84234
499 1 0.726816 0.182173 0.877944
453 1 0.870741 0.118604 0.862627
431 1 0.0587614 0.310613 0.851542
426 1 0.161743 0.364866 0.874968
388 1 0.267318 0.32504 0.84242
878 2 0.425271 0.432958 0.847187
440 1 0.495516 0.318798 0.863234
953 2 0.68939 0.303759 0.855731
445 1 0.5807 0.402821 0.836556
458 1 0.62785 0.408543 0.87832
975 2 0.737269 0.481051 0.861613
888 2 0.731826 0.34009 0.905862
955 2 0.920222 0.347012 0.838426
435 1 0.95449 0.266916 0.873389
883 2 0.733281 0.447438 0.825758
966 2 0.991904 0.492273 0.855999
931 2 0.850545 0.377426 0.877138
402 1 0.291843 0.475784 0.860154
944 2 0.0264663 0.634229 0.829543
911 2 0.0621583 0.751169 0.863028
407 1 0.29376 0.667481 0.827452
890 2 0.150732 0.596573 0.859445
940 2 0.417699 0.565984 0.866474
913 2 0.33136 0.536311 0.81343
937 2 0.390362 0.725318 0.859532
461 1 0.278617 0.640486 0.881205
405 1 0.676356 0.621231 0.826314
887 2 0.526841 0.701649 0.879121
394 1 0.757597 0.720724 0.85143
939 2 0.604676 0.55535 0.871783
933 2 0.856921 0.57516 0.844272
497 1 0.865975 0.754733 0.822574
469 1 0.954629 0.643789 0.864663
406 1 0.0865966 0.929764 0.849096
438 1 0.130994 0.871292 0.880903
956 2 0.161681 0.0282721 0.873398
22 1 0.308551 0.836578 0.837067
401 1 0.476676 0.868261 0.847658
452 1 0.261718 0.00516681 0.842823
434 1 0.398724 0.213142 0.847032
925 2 0.404703 0.977487 0.826882
382 1 0.512813 0.918519 0.802007
866 2 0.646618 0.913864 0.903998
481 1 0.550756 0.0371055 0.828805
868 2 0.60627 0.0184354 0.872208
336 1 0.635023 0.847703 0.868435
885 2 0.998574 0.803184 0.832338
399 1 0.796839 0.853391 0.875662
425 1 0.901037 0.924614 0.831093
427 1 0.760017 0.0119581 0.880938
995 2 0.125594 0.0942498 0.903508
479 1 0.139623 0.191075 0.935084
483 1 0.231227 0.264605 0.905294
419 1 0.276599 0.113238 0.917146
446 1 0.385618 0.149257 0.955152
934 2 0.39601 0.213347 0.887484
474 1 0.375208 0.990671 0.92151
493 1 0.469985 0.138474 0.914487
484 1 0.618819 0.986256 0.939452
950 2 0.674149 0.237075 0.94163
450 1 0.6349 0.0970837 0.910192
929 2 0.0208927 0.0809985 0.933952
459 1 0.872107 0.276714 0.906463
945 2 0.784206 0.120714 0.909145
996 2 0.0690353 0.251417 0.907131
25 1 0.167988 0.363355 0.938092
983 2 0.00215691 0.395718 0.89425
962 2 0.103458 0.524863 0.928789