ITEM: TIMESTEP
10640
ITEM: NUMBER OF ATOMS
1000
ITEM: BOX BOUNDS pp pp pp
0.0000000000000000e+00 6.2996052494743662e+00
0.0000000000000000e+00 6.2996052494743662e+00
0.0000000000000000e+00 2.5198420997897465e+01
ITEM: ATOMS id type xs ys zs
11 1 0.138742 0.108048 0.0656827
952 2 0.104482 0.136947 0.983298
46 1 0.0689365 0.00241401 0.0215457
486 1 0.0202202 0.14079 0.0440259
13 1 0.146187 0.164936 0.0206091
526 2 0.410349 0.217585 0.0543283
17 1 0.491676 0.130058 0.0018179
28 1 0.270402 0.151146 0.0549426
504 2 0.824063 0.155616 0.995506
529 2 0.54809 0.173657 0.040599
12 1 0.684321 0.925304 0.0266812
573 2 0.660821 0.265107 0.0317906
477 1 0.997174 0.229799 0.00176779
544 2 0.812885 0.0865854 0.0314878
534 2 0.79244 0.96948 0.0567804
528 2 0.0956255 0.276058 0.0632055
510 2 0.109571 0.319233 0.0151567
987 2 0.165818 0.443151 0.0440055
489 1 0.261161 0.288553 0.0301433
63 1 0.367934 0.472737 0.0235336
7 1 0.348355 0.364374 0.0559009
506 2 0.639234 0.485419 0.0450104
485 1 0.7642 0.395446 0.0346296
58 1 0.555383 0.356714 0.000133427
61 1 0.988244 0.415958 0.0170249
977 2 0.971075 0.295177 0.0394426
487 1 0.709478 0.306503 0.995935
961 2 0.871427 0.568608 0.0321539
71 1 0.839419 0.274716 0.0189136
963 2 0.0978676 0.51036 0.00855653
997 2 0.157204 0.709572 0.0200867
86 1 0.0202575 0.65794 0.0281844
65 1 0.247535 0.589032 0.043256
524 2 0.346993 0.651834 0.0193548
927 2 0.250324 0.4892 0.998154
19 1 0.249935 0.652121 0.988314
18 1 0.283248 0.733196 0.0495175
514 2 0.471194 0.759667 0.0356925
989 2 0.687501 0.630022 0.0124249
998 2 0.570873 0.614512 0.0575001
999 2 0.637911 0.485723 0.00790342
962 2 0.952888 0.593254 0.987801
33 1 0.709673 0.689507 0.0445803
545 2 0.895552 0.720561 0.0489865
488 1 0.947324 0.758278 0.996716
967 2 0.0753421 0.956976 0.0658675
21 1 0.0251093 0.829872 0.0299334
918 2 0.200502 0.0170683 0.0410777
9 1 0.32526 0.896724 0.0393576
24 1 0.510089 0.855856 0.00448048
37 1 0.209034 0.845038 0.0149697
95 1 0.799299 0.839329 0.0272879
29 1 0.641959 0.971435 0.992762
548 2 0.594731 0.980462 0.0646083
507 2 0.777435 0.988754 0.00489659
571 2 0.533888 0.000947366 0.0297166
971 2 0.599918 0.799867 0.0472571
936 2 0.911277 0.918283 0.0104021
100 1 0.944103 0.00112216 0.0479035
549 2 0.909568 0.863366 0.0660935
101 1 0.224242 0.157936 0.10994
985 2 0.0926376 0.264983 0.101803
555 2 0.273558 0.995739 0.115838
560 2 0.368143 0.122909 0.0862912
498 1 0.401684 0.0675739 0.0431151
600 2 0.513608 0.162272 0.0753672
521 2 0.610463 0.259758 0.0931973
27 1 0.684699 0.104798 0.0545463
48 1 0.453763 0.107035 0.117503
527 2 0.463939 0.264644 0.11046
1 1 0.991523 0.0864033 0.0768995
982 2 0.809767 0.223686 0.0548752
565 2 0.736565 0.172123 0.0871006
532 2 0.0114803 0.510595 0.0477762
85 1 0.0194267 0.39012 0.0769807
77 1 0.169188 0.396501 0.107012
52 1 0.261919 0.251566 0.0827466
552 2 0.505021 0.371558 0.0771161
551 2 0.374906 0.415482 0.0943946
125 1 0.350174 0.447828 0.143498
581 2 0.232372 0.418122 0.0754363
73 1 0.678862 0.356147 0.0637532
558 2 0.5292 0.40534 0.115608
519 2 0.487287 0.526349 0.0869068
598 2 0.883679 0.184011 0.124415
35 1 0.804124 0.299802 0.0951491
981 2 0.86057 0.395623 0.0682086
41 1 0.940609 0.236792 0.0775422
957 2 0.14393 0.548178 0.0722049
10 1 0.0605214 0.712755 0.0995078
547 2 0.302275 0.544323 0.10891
517 2 0.212069 0.698754 0.0979727
56 1 0.356731 0.521501 0.0674252
538 2 0.452657 0.57262 0.122695
523 2 0.416104 0.663388 0.0736448
38 1 0.349033 0.716503 0.114271
511 2 0.688392 0.541813 0.0798663
15 1 0.753804 0.709663 0.0931989
520 2 0.823068 0.604832 0.0668508
40 1 0.978528 0.631835 0.0720842
502 2 0.90168 0.741431 0.0883709
44 1 0.112712 0.0377368 0.106515
525 2 0.189713 0.866652 0.0529599
546 2 0.146433 0.870959 0.0937272
57 1 0.239642 0.980313 0.0804238
23 1 0.310111 0.833731 0.0824922
542 2 0.356196 0.870695 0.120561
543 2 0.419932 0.991963 0.09119
516 2 0.731835 0.843191 0.0675382
559 2 0.459672 0.871801 0.0604227
96 1 0.718327 0.984957 0.0926803
577 2 0.627965 0.862627 0.10104
575 2 0.863337 0.013435 0.0879728
59 1 0.839211 0.0365373 0.124574
70 1 0.144231 0.700138 0.0601089
39 1 0.977673 0.886347 0.096569
513 2 0.817093 0.821078 0.119995
80 1 0.0841702 0.136128 0.133577
566 2 0.207067 0.0527622 0.148763
82 1 0.186585 0.202593 0.166836
576 2 0.987282 0.00490284 0.134585
599 2 0.521102 0.126551 0.15013
74 1 0.387456 0.130257 0.170028
93 1 0.309835 0.166508 0.138611
503 2 0.613008 0.0851652 0.097844
536 2 0.491192 0.00222815 0.176534
99 1 0.652626 0.0691945 0.160665
79 1 0.619327 0.216321 0.129363
34 1 0.747225 0.173418 0.150148
554 2 0.896463 0.114502 0.159195
60 1 0.868883 0.956025 0.156011
150 1 0.846354 0.245391 0.172465
64 1 0.0493352 0.557335 0.101977
590 2 0.106362 0.290028 0.140991
582 2 0.131062 0.454606 0.148291
83 1 0.326307 0.293436 0.123277
87 1 0.314708 0.454133 0.18486
561 2 0.347955 0.275683 0.185747
564 2 0.237156 0.349325 0.160453
50 1 0.682649 0.4178 0.0990405
78 1 0.463969 0.266757 0.150616
62 1 0.627749 0.344283 0.149651
531 2 0.652476 0.604769 0.12008
112 1 0.507737 0.296166 0.189276
76 1 0.657939 0.221962 0.177141
533 2 0.829852 0.484922 0.0968209
26 1 0.949369 0.291882 0.14598
604 2 0.78547 0.347711 0.130822
89 1 0.929121 0.375377 0.110904
550 2 0.192402 0.77798 0.126443
553 2 0.106368 0.671423 0.139103
98 1 0.0814988 0.808315 0.167249
556 2 0.5057 0.439703 0.150431
595 2 0.189173 0.573134 0.167888
91 1 0.281093 0.700674 0.150941
570 2 0.533751 0.663924 0.142454
509 2 0.785408 0.509123 0.130298
537 2 0.554493 0.730344 0.0845981
116 1 0.644853 0.532826 0.162566
88 1 0.652501 0.796379 0.134364
14 1 0.759619 0.615463 0.173884
587 2 0.987422 0.776148 0.131241
66 1 0.88966 0.619536 0.113611
90 1 0.771606 0.688809 0.140244
94 1 0.915942 0.497064 0.144488
42 1 0.126243 0.920174 0.134515
105 1 0.0533402 0.995402 0.170191
53 1 0.418556 0.000161867 0.146952
541 2 0.248333 0.862315 0.15567
578 2 0.358114 0.86017 0.184201
597 2 0.475501 0.79619 0.1297
92 1 0.569233 0.977891 0.126092
69 1 0.708668 0.879906 0.179478
539 2 0.730808 0.936126 0.13994
589 2 0.55414 0.873151 0.163037
540 2 0.885122 0.802949 0.162473
580 2 0.038154 0.181538 0.178174
601 2 0.951465 0.273402 0.20399
603 2 0.239852 0.10889 0.251341
610 2 0.132417 0.0792306 0.198854
638 2 0.286633 0.147574 0.201739
134 1 0.545223 0.0464109 0.232039
110 1 0.646307 0.199143 0.222596
127 1 0.408973 0.0397698 0.206821
68 1 0.772492 0.0438511 0.18604
109 1 0.793977 0.201839 0.207291
605 2 0.949009 0.0726616 0.196151
535 2 0.174083 0.436393 0.18822
107 1 0.127539 0.253897 0.20502
140 1 0.0423183 0.388175 0.224184
632 2 0.319395 0.640655 0.193682
157 1 0.518306 0.132521 0.194312
611 2 0.392993 0.351968 0.218185
617 2 0.362376 0.5126 0.22693
651 2 0.228813 0.378062 0.225408
608 2 0.565863 0.387207 0.231495
586 2 0.493708 0.221153 0.239122
557 2 0.588617 0.432003 0.188052
671 2 0.693445 0.337362 0.209116
54 1 0.00845737 0.389978 0.177122
585 2 0.892389 0.3192 0.242157
81 1 0.854451 0.391284 0.20654
84 1 0.772283 0.370926 0.170064
104 1 0.898407 0.482913 0.236703
111 1 0.0393108 0.531751 0.176799
622 2 0.124988 0.67355 0.203838
606 2 0.137689 0.526318 0.220291
618 2 0.965715 0.609419 0.217989
591 2 0.250058 0.618657 0.232414
122 1 0.249803 0.787516 0.20681
141 1 0.428949 0.56156 0.164157
613 2 0.417828 0.736334 0.206364
607 2 0.7224 0.468643 0.249294
72 1 0.462739 0.472762 0.196895
67 1 0.547336 0.636503 0.188436
592 2 0.687425 0.632803 0.222944
635 2 0.750446 0.507546 0.205661
615 2 0.899673 0.538279 0.187331
139 1 0.627899 0.733332 0.167642
594 2 0.962169 0.643137 0.157911
108 1 0.938757 0.734861 0.196003
596 2 0.160625 0.918954 0.187445
117 1 0.0311566 0.960553 0.211049
567 2 0.157832 0.896931 0.23983
97 1 0.419821 0.729041 0.165322
583 2 0.284265 0.997446 0.179256
118 1 0.287284 0.97738 0.221211
562 2 0.474914 0.888957 0.206474
572 2 0.618519 0.990595 0.19723
144 1 0.611955 0.777259 0.202871
530 2 0.887817 0.918222 0.1933
55 1 0.762424 0.911145 0.213572
113 1 0.732603 0.766652 0.239967
563 2 0.787521 0.721035 0.197242
648 2 0.899389 0.844623 0.236744
128 1 0.0516502 0.208079 0.239463
602 2 0.201572 0.265471 0.255848
646 2 0.136134 0.197693 0.304343
163 1 0.264763 0.166753 0.28535
153 1 0.288471 0.934866 0.260954
201 1 0.363917 0.288162 0.281416
177 1 0.385484 0.042472 0.292271
131 1 0.38966 0.0485113 0.244999
124 1 0.639087 0.165159 0.255793
137 1 0.431215 0.154769 0.268896
653 2 0.676909 0.0133972 0.2814
579 2 0.722645 0.0613745 0.223509
569 2 0.919292 0.165567 0.230851
151 1 0.80144 0.0832383 0.259363
175 1 0.0628489 0.969503 0.302128
614 2 0.939163 0.946459 0.271441
145 1 0.0383432 0.283951 0.276479
636 2 0.251169 0.423314 0.259808
661 2 0.186256 0.347398 0.287037
626 2 0.349393 0.247074 0.245138
612 2 0.496451 0.352714 0.292556
650 2 0.366846 0.478233 0.302266
640 2 0.626957 0.270272 0.297174
138 1 0.643736 0.322815 0.260763
634 2 0.814921 0.392333 0.278023
172 1 0.972462 0.144801 0.272576
623 2 0.750962 0.246315 0.243908
119 1 0.922825 0.326276 0.296847
120 1 0.111532 0.688804 0.247303
166 1 0.124005 0.524984 0.263802
146 1 0.316436 0.549944 0.271961
624 2 0.192959 0.673236 0.277059
675 2 0.405905 0.394942 0.254979
142 1 0.404787 0.656498 0.246579
114 1 0.528012 0.500346 0.27203
616 2 0.290575 0.77244 0.24236
637 2 0.658922 0.482015 0.291547
665 2 0.840144 0.640254 0.236107
115 1 0.584569 0.634282 0.259188
670 2 0.564728 0.532308 0.223243
123 1 0.729601 0.644153 0.26144
630 2 0.624029 0.636112 0.295621
609 2 0.955241 0.708833 0.257945
135 1 0.984141 0.457173 0.271157
169 1 0.845498 0.538818 0.267881
620 2 0.950873 0.638414 0.289477
102 1 0.0916688 0.0660928 0.249342
152 1 0.942871 0.843257 0.303909
121 1 0.030694 0.829815 0.268279
642 2 0.0656099 0.80191 0.216151
672 2 0.194123 0.833921 0.277526
696 2 0.303859 0.910131 0.301743
673 2 0.409906 0.811729 0.314844
568 2 0.178871 0.0193383 0.282506
103 1 0.347185 0.743793 0.278097
593 2 0.530861 0.728101 0.232528
647 2 0.608553 0.88928 0.235118
164 1 0.510659 0.751029 0.282023
149 1 0.430567 0.852385 0.245033
160 1 0.663125 0.811526 0.282158
588 2 0.759037 0.915833 0.255374
667 2 0.891461 0.00711593 0.229751
621 2 0.825606 0.784509 0.270137
625 2 0.791706 0.924632 0.297554
176 1 0.228237 0.0612922 0.316406
706 2 0.269968 0.112411 0.357586
182 1 0.105053 0.194688 0.346584
700 2 0.0532125 0.0204527 0.336508
197 1 0.324824 0.227376 0.319771
231 1 0.389245 0.0208213 0.336862
678 2 0.465433 0.143267 0.344351
658 2 0.520631 0.992505 0.322094
702 2 0.430537 0.0259549 0.375507
183 1 0.544547 0.126481 0.293533
627 2 0.636214 0.149267 0.343627
126 1 0.741652 0.192304 0.319459
180 1 0.825604 0.0801601 0.298665
655 2 0.764325 0.0199569 0.360923
185 1 0.88246 0.136643 0.341579
680 2 0.994183 0.153497 0.317958
657 2 0.27217 0.379087 0.321336
106 1 0.0669226 0.332414 0.311619
584 2 0.0813269 0.509476 0.301803
662 2 0.505701 0.312391 0.333629
148 1 0.533747 0.495836 0.315517
167 1 0.311371 0.496545 0.345812
686 2 0.626467 0.311309 0.365428
133 1 0.772056 0.315661 0.356663
158 1 0.650994 0.403261 0.333004
652 2 0.840757 0.217795 0.282213
161 1 0.761548 0.339958 0.308129
699 2 0.881233 0.33198 0.331422
645 2 0.137113 0.482662 0.336485
641 2 0.101568 0.664902 0.306572
168 1 0.230784 0.544897 0.308489
619 2 0.426818 0.618077 0.300589
171 1 0.253834 0.65402 0.342673
143 1 0.435718 0.616752 0.343926
198 1 0.586525 0.732065 0.345509
639 2 0.679806 0.758797 0.318193
643 2 0.627888 0.565041 0.349002
170 1 0.780008 0.667377 0.349491
244 1 0.732518 0.496267 0.372416
129 1 0.726801 0.580527 0.322275
130 1 0.919691 0.495151 0.308023
191 1 0.017673 0.591484 0.333063
629 2 0.811961 0.679582 0.297574
207 1 0.173477 0.931412 0.342308
247 1 0.0922826 0.808513 0.312844
649 2 0.925381 0.706632 0.32721
196 1 0.974216 0.876051 0.343898
720 2 0.103146 0.714725 0.350831
691 2 0.331661 0.872996 0.352031
697 2 0.252398 0.78123 0.323957
178 1 0.512845 0.891308 0.349618
147 1 0.526709 0.939046 0.273626
154 1 0.538111 0.849812 0.31302
628 2 0.697573 0.0359284 0.318925
155 1 0.873943 0.974912 0.329499
195 1 0.816203 0.828896 0.32652
212 1 0.21904 0.0174866 0.409132
677 2 0.133881 0.0650364 0.374857
736 2 0.24829 0.272618 0.357598
211 1 0.118604 0.231384 0.385187
690 2 0.0616186 0.0177602 0.407307
187 1 0.401144 0.216178 0.376898
682 2 0.285944 0.972578 0.380132
188 1 0.309194 0.12706 0.397908
683 2 0.483437 0.0156186 0.426009
633 2 0.572076 0.154177 0.387709
165 1 0.749427 0.177145 0.372677
189 1 0.707681 0.203873 0.409369
679 2 0.980318 0.0951904 0.365996
184 1 0.869487 0.275989 0.39214
656 2 0.973728 0.26134 0.355226
179 1 0.87209 0.0583517 0.401201
687 2 0.0996388 0.34792 0.3552
688 2 0.163774 0.459807 0.410753
136 1 0.393303 0.358738 0.354855
213 1 0.271478 0.312577 0.397877
162 1 0.381885 0.423757 0.399096
692 2 0.508983 0.335928 0.386968
664 2 0.704107 0.357816 0.399369
217 1 0.486393 0.470539 0.352809
669 2 0.49029 0.519145 0.393252
693 2 0.891761 0.433675 0.370878
710 2 0.0641498 0.310658 0.422188
156 1 0.00514088 0.40334 0.398023
132 1 0.210778 0.439715 0.372452
203 1 0.248208 0.604689 0.417404
216 1 0.0528842 0.51944 0.372882
220 1 0.172271 0.596211 0.379499
631 2 0.355406 0.626661 0.376951
173 1 0.631909 0.596697 0.387265
723 2 0.653349 0.652711 0.426771
718 2 0.628483 0.493609 0.415663
644 2 0.904004 0.595235 0.357866
666 2 0.00268371 0.437408 0.341301
199 1 0.962367 0.73825 0.363203
186 1 0.894663 0.53811 0.415237
194 1 0.801654 0.473409 0.339651
275 1 0.786559 0.631143 0.401059
205 1 0.967869 0.627938 0.38924
221 1 0.246988 0.775975 0.377609
745 2 0.184725 0.732883 0.431276
660 2 0.0499598 0.93618 0.37642
225 1 0.121397 0.757007 0.397242
223 1 0.431133 0.742156 0.360136
725 2 0.368169 0.764298 0.399143
202 1 0.479735 0.883343 0.388239
174 1 0.538629 0.753659 0.407746
746 2 0.242707 0.877324 0.420752
190 1 0.670389 0.8837 0.341251
676 2 0.687951 0.75368 0.37782
698 2 0.599264 0.0222565 0.366042
703 2 0.610019 0.966418 0.406519
654 2 0.89872 0.961747 0.375601
200 1 0.97606 0.816671 0.394771
674 2 0.826881 0.78151 0.375067
724 2 0.744304 0.903276 0.381879
209 1 0.92376 0.961602 0.42482
236 1 0.109925 0.0365237 0.444433
232 1 0.325412 0.188767 0.433524
261 1 0.226994 0.107828 0.456848
235 1 0.141702 0.180217 0.425051
707 2 0.358881 0.0138687 0.441682
214 1 0.48801 0.00814694 0.468708
684 2 0.466823 0.150028 0.452634
238 1 0.443464 0.198949 0.411924
233 1 0.349381 0.113497 0.479795
159 1 0.718217 0.0589257 0.394377
705 2 0.710916 0.163516 0.461916
717 2 0.596531 0.109102 0.435499
228 1 0.60262 0.972199 0.451394
715 2 0.865033 0.0863226 0.442069
659 2 0.862086 0.253941 0.439802
192 1 0.0370173 0.448047 0.437649
711 2 0.974417 0.273292 0.466854
272 1 0.107128 0.306747 0.461767
242 1 0.229356 0.39767 0.444675
239 1 0.402062 0.312553 0.440083
714 2 0.338216 0.387837 0.471199
716 2 0.580593 0.302912 0.427604
689 2 0.724834 0.334033 0.441497
739 2 0.610472 0.429729 0.459545
240 1 0.760827 0.521072 0.441826
734 2 0.587457 0.267269 0.464431
181 1 0.981004 0.181144 0.413122
709 2 0.828407 0.410247 0.412408
740 2 0.931157 0.43325 0.486018
230 1 0.784507 0.300864 0.475737
222 1 0.0515553 0.57968 0.418547
296 1 0.165198 0.542446 0.448074
206 1 0.0734464 0.64469 0.456546
193 1 0.427229 0.631227 0.412293
237 1 0.322476 0.530132 0.445818
721 2 0.510497 0.516863 0.437465
663 2 0.686081 0.622695 0.465806
668 2 0.638189 0.770203 0.473313
204 1 0.505094 0.681811 0.447556
737 2 0.803497 0.676039 0.440143
215 1 0.88553 0.422031 0.44773
224 1 0.757204 0.826295 0.455096
767 2 0.933962 0.576109 0.454025
246 1 0.970737 0.700244 0.424518
695 2 0.246534 0.680305 0.472104
257 1 0.162855 0.869911 0.454682
681 2 0.0848703 0.869531 0.422059
208 1 0.389587 0.877584 0.425313
722 2 0.338995 0.720776 0.437655
708 2 0.348689 0.89715 0.465057
727 2 0.466861 0.812835 0.466956
229 1 0.611491 0.828224 0.435591
749 2 0.737671 0.949814 0.420426
719 2 0.77633 0.777425 0.412907
243 1 0.746727 0.856135 0.49029
755 2 0.990888 0.81736 0.450795
251 1 0.887661 0.928162 0.46179
732 2 0.124423 0.186002 0.489644
753 2 0.25635 0.138901 0.506954
264 1 0.397098 0.107056 0.522543
729 2 0.517569 0.1177 0.494231
778 2 0.638307 0.265669 0.496437
250 1 0.744846 0.010731 0.455541
284 1 0.90606 0.076734 0.526823
210 1 0.838685 0.151294 0.474896
759 2 0.783422 0.197178 0.514921
265 1 0.030312 0.143757 0.455726
260 1 0.948199 0.258748 0.510822
321 1 0.980876 0.0871603 0.48811
262 1 0.0545731 0.500534 0.476404
765 2 0.0571794 0.351698 0.503056
747 2 0.18058 0.521637 0.529509
742 2 0.201517 0.291104 0.515139
712 2 0.202333 0.429973 0.494242
234 1 0.270764 0.239861 0.480866
738 2 0.420545 0.283255 0.486535
792 2 0.343049 0.431536 0.515932
685 2 0.748082 0.470897 0.477207
269 1 0.474893 0.539999 0.518691
779 2 0.483638 0.40677 0.487337
744 2 0.71485 0.518988 0.517755
762 2 0.985753 0.480873 0.519504
761 2 0.810881 0.389768 0.517819
273 1 0.00943325 0.650774 0.499438
267 1 0.143763 0.587332 0.492665
766 2 0.290094 0.596378 0.510574
741 2 0.34083 0.784358 0.490015
713 2 0.379842 0.52638 0.484925
752 2 0.18085 0.717566 0.509732
218 1 0.503188 0.6541 0.48954
694 2 0.605494 0.532385 0.491606
249 1 0.461016 0.665436 0.538127
748 2 0.607255 0.725923 0.512074
300 1 0.759012 0.710467 0.494934
245 1 0.864696 0.563821 0.497307
774 2 0.895597 0.695758 0.472109
735 2 0.157875 0.0306953 0.484774
780 2 0.0766258 0.971983 0.515671
278 1 0.0886875 0.773319 0.476549
266 1 0.189118 0.871853 0.498908
751 2 0.184697 0.883012 0.537097
733 2 0.405294 0.928203 0.496588
227 1 0.335575 0.765823 0.530224
255 1 0.513528 0.975205 0.525345
772 2 0.571907 0.911881 0.488802
279 1 0.473189 0.783083 0.507055
726 2 0.048468 0.954285 0.475455
701 2 0.941004 0.826136 0.486602
704 2 0.765616 0.799057 0.530323
799 2 0.886771 0.954776 0.504269
287 1 0.211105 0.0734373 0.541727
256 1 0.0354487 0.0536394 0.546539
788 2 0.113773 0.226991 0.562154
796 2 0.350427 0.0183101 0.563726
731 2 0.286924 0.980753 0.51957
310 1 0.440432 0.158551 0.55962
259 1 0.437786 0.279431 0.528839
760 2 0.38864 0.116812 0.592947
757 2 0.282878 0.232411 0.542649
289 1 0.55897 0.172369 0.529624
277 1 0.579093 0.158413 0.592554
804 2 0.659989 0.0884004 0.501747
290 1 0.76159 0.106122 0.545216
776 2 0.858032 0.214632 0.585652
791 2 0.927624 0.221637 0.55092
280 1 0.870403 0.0473398 0.567559
763 2 0.0771774 0.189185 0.525329
298 1 0.233968 0.518295 0.570377
286 1 0.00225805 0.289455 0.580979
295 1 0.0832694 0.352518 0.54125
728 2 0.240097 0.394883 0.542692
349 1 0.197265 0.371341 0.58373
832 2 0.356559 0.386679 0.583781
764 2 0.526602 0.278041 0.568074
263 1 0.393941 0.466086 0.552818
270 1 0.677606 0.280588 0.536224
294 1 0.70607 0.196967 0.573844
219 1 0.591772 0.400154 0.511186
285 1 0.635471 0.427302 0.547417
790 2 0.804404 0.309917 0.554253
366 1 0.771682 0.500334 0.563614
274 1 0.939486 0.380201 0.55836
320 1 0.795361 0.382651 0.588453
293 1 0.244452 0.711507 0.554169
775 2 0.0891665 0.645902 0.53407
797 2 0.121093 0.651439 0.582782
299 1 0.0568635 0.526044 0.554399
248 1 0.383729 0.601579 0.566775
253 1 0.34739 0.747255 0.620093
322 1 0.585822 0.766003 0.547872
769 2 0.558903 0.546815 0.560824
254 1 0.664558 0.63176 0.543215
226 1 0.672613 0.612111 0.584783
241 1 0.908403 0.530218 0.551127
770 2 0.903816 0.759606 0.517775
750 2 0.839091 0.600424 0.584024
314 1 0.787164 0.648044 0.528038
283 1 0.201835 0.770042 0.601353
800 2 0.146565 0.965772 0.569163
793 2 0.0178017 0.84183 0.519658
743 2 0.422022 0.745303 0.574104
258 1 0.289975 0.873174 0.566128
348 1 0.442062 0.901305 0.588952
823 2 0.626425 0.87763 0.524416
309 1 0.450625 0.849516 0.542015
282 1 0.600479 0.90847 0.570114
308 1 0.744916 0.971583 0.519724
783 2 0.75825 0.739204 0.566218
730 2 0.925847 0.908578 0.543857
306 1 0.75749 0.932098 0.560473
785 2 0.0020059 0.96054 0.581751
754 2 0.982488 0.733889 0.548344
291 1 0.156741 0.240259 0.612892
781 2 0.0116402 0.121568 0.582286
802 2 0.203784 0.0975531 0.579662
810 2 0.0277733 0.218877 0.635488
771 2 0.287874 0.237766 0.584562
758 2 0.445931 0.955465 0.623781
756 2 0.287714 0.191309 0.623691
252 1 0.267458 0.0444316 0.612375
789 2 0.681405 0.0292295 0.585488
809 2 0.503843 0.0261533 0.573206
335 1 0.58806 0.0922432 0.623531
824 2 0.615449 0.0478556 0.544886
826 2 0.68666 0.98935 0.636308
281 1 0.846516 0.932649 0.601409
305 1 0.88665 0.115763 0.624571
331 1 0.912403 0.302473 0.615122
817 2 0.0432255 0.392809 0.605783
801 2 0.0659109 0.473975 0.652705
347 1 0.185056 0.0990171 0.64674
268 1 0.435102 0.261207 0.610155
787 2 0.261788 0.361728 0.617952
782 2 0.364074 0.51699 0.652532
319 1 0.499125 0.394029 0.595106
333 1 0.414942 0.30535 0.650708
794 2 0.630162 0.312763 0.60451
773 2 0.686334 0.447655 0.632023
834 2 0.40489 0.452353 0.62047
311 1 0.762868 0.277787 0.616861
784 2 0.737003 0.13428 0.630749
840 2 0.819419 0.4256 0.649059
811 2 0.9487 0.443934 0.63183
297 1 0.979521 0.645881 0.591184
795 2 0.989232 0.586003 0.633686
315 1 0.924098 0.475277 0.59518
341 1 0.0950982 0.522555 0.600046
768 2 0.461025 0.54674 0.59875
292 1 0.233138 0.495544 0.615596
342 1 0.26987 0.635598 0.598844
777 2 0.506112 0.786931 0.616244
328 1 0.157403 0.666634 0.627295
303 1 0.594511 0.602236 0.621273
818 2 0.458907 0.657069 0.634115
324 1 0.639044 0.787999 0.639411
313 1 0.640132 0.463111 0.58825
813 2 0.792817 0.609928 0.650933
845 2 0.821578 0.54571 0.619423
325 1 0.75288 0.697527 0.613221
825 2 0.879197 0.695537 0.624898
822 2 0.108144 0.912494 0.607253
798 2 0.0936336 0.821395 0.573838
821 2 0.158963 0.929046 0.642627
326 1 0.402947 0.826812 0.646215
842 2 0.295697 0.890968 0.60513
288 1 0.580223 0.740594 0.587798
808 2 0.717705 0.831426 0.594222
374 1 0.598408 0.930998 0.607811
843 2 0.776313 0.841476 0.6319
814 2 0.015902 0.769606 0.617147
271 1 0.987055 0.998555 0.628128
350 1 0.911363 0.823665 0.583008
850 2 0.84207 0.994052 0.652859
302 1 0.106677 0.069334 0.606602
332 1 0.129942 0.194964 0.674241
357 1 0.98899 0.34136 0.660829
276 1 0.421935 0.964472 0.663138
372 1 0.493164 0.152435 0.651344
330 1 0.555881 0.295722 0.683217
803 2 0.563851 0.0153156 0.655927
365 1 0.576219 0.28298 0.644928
301 1 0.661739 0.14508 0.662636
835 2 0.626642 0.26849 0.717696
334 1 0.576909 0.125069 0.702042
846 2 0.978549 0.203313 0.673084
304 1 0.82247 0.1367 0.669215
390 1 0.733415 0.166348 0.701312
829 2 0.223275 0.289386 0.698526
812 2 0.287615 0.431611 0.682695
416 1 0.150197 0.38594 0.719862
323 1 0.397886 0.317842 0.690812
833 2 0.284401 0.236254 0.66748
807 2 0.145753 0.346209 0.64584
339 1 0.625303 0.423634 0.691664
340 1 0.7519 0.498162 0.678476
816 2 0.854272 0.261456 0.648952
376 1 0.72684 0.286862 0.67497
871 2 0.872808 0.390492 0.686947
362 1 0.153862 0.54299 0.690971
815 2 0.0912432 0.791847 0.658956
387 1 0.177727 0.68862 0.676028
862 2 0.192259 0.548457 0.649504
368 1 0.234997 0.795166 0.642339
317 1 0.31426 0.667687 0.655583
318 1 0.45625 0.611376 0.728654
867 2 0.293937 0.614142 0.699492
844 2 0.613937 0.585468 0.700449
338 1 0.510301 0.427479 0.650991
837 2 0.425872 0.495692 0.685634
343 1 0.59959 0.704897 0.671944
839 2 0.744531 0.735656 0.669737
860 2 0.906797 0.731703 0.660783
848 2 0.898611 0.534671 0.662183
861 2 0.0308953 0.440321 0.688811
849 2 0.0262539 0.0665039 0.659314
872 2 0.331165 0.896517 0.69215
346 1 0.30016 0.75853 0.690806
820 2 0.279247 0.026316 0.677924
841 2 0.178984 0.887778 0.682313
847 2 0.440324 0.643924 0.680266
327 1 0.511712 0.944889 0.702823
819 2 0.550086 0.872429 0.667653
316 1 0.712628 0.88893 0.670149
873 2 0.665238 0.880268 0.707137
329 1 0.658436 0.0227749 0.684876
355 1 0.8908 0.880025 0.674515
865 2 0.916901 0.869409 0.635734
855 2 0.0320466 0.932897 0.669626
377 1 0.0505051 0.30445 0.69852
786 2 0.26311 0.153972 0.70444
830 2 0.18148 0.0755682 0.758458
857 2 0.213955 0.218567 0.736341
827 2 0.410307 0.0698179 0.687985
854 2 0.319955 0.123356 0.748492
353 1 0.48008 0.0963107 0.736767
397 1 0.48154 0.95381 0.764387
359 1 0.39824 0.219185 0.723378
909 2 0.600438 0.999219 0.736919
853 2 0.807975 0.217764 0.738465
358 1 0.86684 0.0343767 0.69435
864 2 0.00452677 0.0893984 0.70254
876 2 0.117569 0.137723 0.721115
356 1 0.888015 0.0796589 0.731053
806 2 0.0591355 0.289042 0.746772
805 2 0.0322877 0.137786 0.757383
828 2 0.19043 0.358474 0.757251
307 1 0.481327 0.281975 0.755931
851 2 0.304028 0.337364 0.731702
364 1 0.354891 0.484067 0.720274
360 1 0.507069 0.465859 0.723609
889 2 0.609407 0.400096 0.753794
352 1 0.959578 0.221657 0.725284
863 2 0.92861 0.394103 0.725189
859 2 0.774448 0.344733 0.717702
361 1 0.0034974 0.435007 0.76132
386 1 0.823539 0.462017 0.742683
385 1 0.913702 0.29175 0.765098
424 1 0.0687706 0.506866 0.724011
858 2 0.229113 0.607718 0.774439
398 1 0.993785 0.760428 0.736637
831 2 0.160159 0.667624 0.72813
312 1 0.210674 0.492772 0.741828
400 1 0.481907 0.592731 0.778932
337 1 0.565301 0.729313 0.758521
373 1 0.323099 0.652842 0.742231
838 2 0.752638 0.664415 0.700956
375 1 0.750869 0.627605 0.757083
370 1 0.719524 0.508717 0.720847
893 2 0.602174 0.585768 0.739163
410 1 0.696405 0.505725 0.765991
891 2 0.0253793 0.641312 0.685848
345 1 0.873164 0.557596 0.703616
473 1 0.899153 0.620108 0.73765
875 2 0.88514 0.727092 0.710273
881 2 0.221739 0.0267974 0.721681
371 1 0.235626 0.834091 0.720868
896 2 0.072354 0.96806 0.743966
874 2 0.46069 0.766917 0.699306
367 1 0.215328 0.747448 0.771013
886 2 0.395837 0.950363 0.734044
898 2 0.595931 0.72506 0.716839
900 2 0.551539 0.845939 0.737258
354 1 0.75158 0.0120286 0.720137
404 1 0.732204 0.736401 0.735084
423 1 0.814851 0.853786 0.714656
836 2 0.0570184 0.800626 0.697421
379 1 0.962381 0.927687 0.71272
396 1 0.130875 0.0312775 0.690272
880 2 0.0378711 0.126746 0.828709
412 1 0.305193 0.186827 0.804003
910 2 0.154693 0.221486 0.77746
852 2 0.314034 0.0188531 0.778748
882 2 0.426711 0.13625 0.776999
393 1 0.342435 0.252893 0.768351
378 1 0.298939 0.994566 0.815947
382 1 0.509564 0.0201463 0.803027
389 1 0.569365 0.100071 0.768642
924 2 0.555476 0.231455 0.795686
414 1 0.657838 0.260667 0.761606
877 2 0.017324 0.0407209 0.787144
869 2 0.718379 0.118523 0.753008
405 1 0.615106 0.165851 0.828954
879 2 0.872528 0.125955 0.779617
384 1 0.00771502 0.206716 0.797397
922 2 0.843075 0.0630776 0.815974
369 1 0.397705 0.361091 0.807094
351 1 0.0341059 0.36455 0.795747
932 2 0.159303 0.24818 0.814383
443 1 0.237536 0.421673 0.796199
363 1 0.127968 0.523253 0.794456
892 2 0.560212 0.370962 0.822746
884 2 0.632184 0.399067 0.790049
887 2 0.494865 0.409972 0.778422
408 1 0.35103 0.451938 0.765806
930 2 0.762726 0.356795 0.767425
964 2 0.729359 0.303286 0.816345
391 1 0.747185 0.518377 0.806083
381 1 0.861693 0.393712 0.792838
460 1 0.747577 0.179818 0.794753
885 2 0.898242 0.535383 0.770424
940 2 0.0902769 0.624041 0.824113
406 1 0.987986 0.873967 0.763304
942 2 0.178588 0.73055 0.807833
913 2 0.260845 0.603089 0.810125
917 2 0.365196 0.715616 0.792522
866 2 0.520188 0.694893 0.816073
943 2 0.312808 0.742076 0.825213
933 2 0.420793 0.539107 0.808738
449 1 0.60162 0.54248 0.802575
870 2 0.645992 0.739559 0.799171
394 1 0.667244 0.623917 0.828814
422 1 0.795781 0.674575 0.790541
344 1 0.872568 0.739578 0.759254
411 1 0.984341 0.48706 0.816694
441 1 0.0808858 0.634268 0.759576
497 1 0.957024 0.641092 0.798866
413 1 0.175533 0.0727765 0.800565
392 1 0.151867 0.895427 0.788514
856 2 0.92431 0.799255 0.795589
401 1 0.0589056 0.764263 0.782434
430 1 0.385446 0.778261 0.732069
897 2 0.235655 0.914853 0.753881
383 1 0.300935 0.872607 0.797111
919 2 0.572939 0.876845 0.786842
336 1 0.815589 0.730084 0.826651
868 2 0.664055 0.794852 0.837896
895 2 0.709387 0.952279 0.758803
920 2 0.699099 0.0416468 0.795101
425 1 0.848875 0.971152 0.785005
972 2 0.766387 0.823706 0.781441
899 2 0.866729 0.93248 0.745216
431 1 0.139619 0.245479 0.85476
426 1 0.0728664 0.385464 0.878454
921 2 0.180593 0.08597 0.849654
388 1 0.347291 0.135066 0.846013
434 1 0.330095 0.869622 0.854503
941 2 0.469416 0.188063 0.823612
949 2 0.463137 0.20246 0.871296
380 1 0.43895 0.00052079 0.835508
481 1 0.577704 0.0732923 0.860478
975 2 0.727677 0.00740529 0.852178
904 2 0.635927 0.899811 0.872525
990 2 0.870235 0.246759 0.815489
499 1 0.0415592 0.0967431 0.864044
937 2 0.160018 0.485181 0.861921
901 2 0.088228 0.402814 0.832936
984 2 0.295889 0.296807 0.842098
429 1 0.266211 0.483731 0.831517
445 1 0.427527 0.437867 0.839687
883 2 0.607743 0.28907 0.857751
888 2 0.710127 0.193467 0.868893
935 2 0.603509 0.482556 0.843284
960 2 0.743157 0.441232 0.8604
974 2 0.623041 0.4622 0.88196
435 1 0.91892 0.477804 0.860837
407 1 0.0283468 0.588164 0.864772
417 1 0.894838 0.283802 0.858929
944 2 0.858413 0.393183 0.829284
902 2 0.945335 0.658099 0.841891
912 2 0.15227 0.717573 0.853244
894 2 0.349066 0.605546 0.842972
939 2 0.434207 0.735666 0.850598
458 1 0.459553 0.533465 0.868969
915 2 0.576026 0.612247 0.862597
931 2 0.746562 0.688358 0.863021
914 2 0.584981 0.764043 0.882348
890 2 0.797506 0.579495 0.839495
415 1 0.713086 0.587624 0.890538
395 1 0.882194 0.632155 0.873382
911 2 0.0368742 0.774096 0.82836
916 2 0.967793 0.974441 0.826573
452 1 0.182048 0.842567 0.858956
476 1 0.177143 0.927358 0.828361
968 2 0.19232 0.979841 0.882583
428 1 0.053171 0.93939 0.852855
923 2 0.453862 0.840661 0.80878
925 2 0.300551 0.727328 0.874855
399 1 0.609129 0.965344 0.82951
403 1 0.520034 0.861123 0.849312
472 1 0.732917 0.728927 0.901055
420 1 0.89931 0.863033 0.84027
421 1 0.751129 0.879145 0.813312
459 1 0.784754 0.862782 0.862338
451 1 0.876376 0.97206 0.867532
908 2 0.247915 0.347743 0.909582
457 1 0.0548155 0.0501057 0.90311
983 2 0.983012 0.250488 0.890987
878 2 0.272817 0.230233 0.876179
483 1 0.233625 0.104404 0.89564
934 2 0.379714 0.00219201 0.878807
928 2 0.382901 0.122309 0.901603
953 2 0.718512 0.0583985 0.893642
409 1 0.553856 0.130945 0.897618
479 1 0.947202 0.161132 0.922687
976 2 0.839521 0.145388 0.846291
954 2 0.881851 0.127602 0.884804
418 1 0.300703 0.427599 0.881277
470 1 0.280717 0.486923 0.917668
436 1 0.121468 0.538871 0.896216
906 2 0.0360529 0.492109 0.936635
25 1 0.0932621 0.357154 0.916366
440 1 0.458078 0.379238 0.872049
988 2 0.390675 0.276637 0.903605
439 1 0.402961 0.634387 0.924973
2 1 0.459622 0.223206 0.932768
462 1 0.585138 0.270338 0.899972
480 1 0.783143 0.217403 0.902745