ITEM: TIMESTEP
1520
ITEM: NUMBER OF ATOMS
1000
ITEM: BOX BOUNDS pp pp pp
0.0000000000000000e+00 6.2996052494743662e+00
0.0000000000000000e+00 6.2996052494743662e+00
0.0000000000000000e+00 2.5198420997897465e+01
ITEM: ATOMS id type xs ys zs
1 1 0.0175855 0.0378217 0.0265989
501 2 0.303592 0.221994 0.0342745
502 2 0.120966 0.151939 0.0159667
521 2 0.200107 0.0263552 0.0363716
976 2 0.906903 0.185314 0.0129375
8 1 0.291015 0.0676804 0.0123259
9 1 0.533056 0.0216348 0.0056378
503 2 0.650175 0.0585432 0.0236976
10 1 0.681496 0.285124 0.0332129
508 2 0.66719 0.150229 0.0500232
979 2 0.647656 0.0501975 0.976964
6 1 0.821803 0.151665 0.985402
504 2 0.777321 0.938479 0.0184404
505 2 0.871635 0.0306111 0.0451179
509 2 0.79707 0.19784 0.0430233
12 1 0.241189 0.35673 0.0155004
981 2 0.967071 0.345684 0.998993
7 1 0.368587 0.40497 0.0346012
507 2 0.256525 0.513045 0.0165102
14 1 0.551384 0.208181 0.0257458
13 1 0.412492 0.48323 0.0020463
514 2 0.56142 0.339184 0.00845795
15 1 0.680581 0.449417 0.0108099
40 1 0.753784 0.408839 0.0382378
510 2 0.937293 0.395444 0.0390015
511 2 0.056828 0.487166 0.0156816
516 2 0.22977 0.69981 0.0096132
512 2 0.46112 0.45729 0.0636182
517 2 0.3705 0.613019 0.0162528
518 2 0.486264 0.533668 0.0270843
519 2 0.607636 0.581272 0.00737902
24 1 0.66821 0.721324 0.0141289
16 1 0.9559 0.677644 0.010785
20 1 0.752068 0.592584 0.988984
45 1 0.737238 0.607983 0.0269965
515 2 0.831092 0.46855 0.011928
2 1 0.248191 0.925519 0.0095695
21 1 0.0415026 0.789588 0.00897961
22 1 0.170166 0.845 0.98263
46 1 0.110049 0.917682 0.0210818
23 1 0.399074 0.731061 0.0319984
3 1 0.473233 0.885414 0.00396718
524 2 0.627107 0.884224 0.0249242
50 1 0.705127 0.752242 0.0459666
998 2 0.549779 0.712352 0.0402601
5 1 0.93781 0.853693 0.0323198
520 2 0.819344 0.773111 0.0150858
25 1 0.754291 0.930129 0.982235
52 1 0.168087 0.0149403 0.086739
526 2 0.144572 0.160021 0.0538497
32 1 0.313886 0.112649 0.0589748
28 1 0.496283 0.0897547 0.0547986
33 1 0.433695 0.249165 0.048882
58 1 0.467803 0.200334 0.0847838
527 2 0.516755 0.968944 0.0753104
532 2 0.279732 0.163206 0.103244
528 2 0.619386 0.0878342 0.0864682
529 2 0.757606 0.965813 0.0877633
34 1 0.782507 0.119792 0.0767537
35 1 0.874297 0.308294 0.0659686
530 2 0.0375766 0.0623684 0.0668203
534 2 0.91581 0.0715313 0.0902679
11 1 0.0953272 0.30013 0.0358095
37 1 0.14998 0.444472 0.045448
506 2 0.260208 0.277169 0.0684968
531 2 0.202057 0.451394 0.112442
38 1 0.301337 0.418679 0.0726771
39 1 0.70747 0.358218 0.0691452
513 2 0.581124 0.422008 0.0423564
533 2 0.576613 0.277572 0.0615574
538 2 0.431215 0.348721 0.088438
31 1 0.973349 0.179975 0.0455632
36 1 0.0712911 0.335171 0.0795024
540 2 0.00573708 0.503311 0.0633238
41 1 0.141579 0.550695 0.0780497
536 2 0.236687 0.604392 0.116261
542 2 0.198534 0.681979 0.0724653
42 1 0.313605 0.563693 0.0549504
43 1 0.552391 0.572621 0.088818
48 1 0.456877 0.658288 0.0716068
537 2 0.349169 0.497913 0.102367
567 2 0.369681 0.676373 0.100955
44 1 0.669422 0.660941 0.0795595
49 1 0.620279 0.566273 0.0520858
539 2 0.763323 0.536154 0.0616795
544 2 0.837685 0.676334 0.0638839
70 1 0.89584 0.552234 0.0426708
545 2 0.132896 0.650143 0.0397377
564 2 0.873351 0.534254 0.0826741
570 2 0.0199945 0.624158 0.0824401
26 1 0.0410206 0.961807 0.108144
27 1 0.253806 0.9156 0.0625273
525 2 0.0585472 0.921883 0.0615277
546 2 0.132631 0.869751 0.0882154
47 1 0.191967 0.799247 0.0419239
522 2 0.367437 0.985006 0.0384059
523 2 0.480159 0.864301 0.0497326
547 2 0.332121 0.767653 0.0678182
29 1 0.631576 0.939229 0.057472
543 2 0.591423 0.820628 0.0752378
73 1 0.403539 0.865031 0.100311
548 2 0.625496 0.929096 0.104537
549 2 0.76945 0.787781 0.08617
30 1 0.774757 0.877031 0.0508778
55 1 0.895278 0.936274 0.0679944
550 2 0.0014623 0.728656 0.0543726
51 1 0.0844025 0.161068 0.0920254
551 2 0.161402 0.118843 0.125181
53 1 0.440147 0.0680037 0.107739
77 1 0.32858 0.10114 0.145956
552 2 0.421658 0.20665 0.129075
54 1 0.563127 0.0719393 0.125973
59 1 0.729424 0.235308 0.0948335
79 1 0.641021 0.100354 0.163876
553 2 0.553713 0.281446 0.129442
554 2 0.720782 0.229239 0.13824
60 1 0.866382 0.00726099 0.137887
535 2 0.815131 0.162389 0.118845
80 1 0.731725 0.0427761 0.119396
555 2 0.998097 0.160398 0.128426
56 1 0.14788 0.280762 0.114866
57 1 0.255015 0.258127 0.147169
61 1 0.0475661 0.443802 0.102629
62 1 0.299486 0.406456 0.137909
556 2 0.0765931 0.244034 0.151869
63 1 0.306268 0.312731 0.108066
557 2 0.429306 0.410752 0.165446
558 2 0.457701 0.390104 0.128694
64 1 0.699387 0.504022 0.0991471
89 1 0.671152 0.379111 0.126918
559 2 0.601304 0.327726 0.0954117
560 2 0.81962 0.374988 0.106544
65 1 0.962475 0.242282 0.0982398
86 1 0.988434 0.355143 0.128177
66 1 0.98239 0.590266 0.116108
541 2 0.124825 0.7679 0.118122
566 2 0.228152 0.807611 0.146528
67 1 0.31822 0.674687 0.142617
93 1 0.459437 0.805865 0.149002
562 2 0.442582 0.55224 0.128468
68 1 0.516242 0.715775 0.101553
69 1 0.759794 0.655506 0.12528
94 1 0.730302 0.496758 0.151591
563 2 0.586859 0.618256 0.1301
565 2 0.855149 0.518729 0.126501
71 1 0.0850045 0.855213 0.146536
76 1 0.0890808 0.0269817 0.146365
571 2 0.17929 0.932334 0.119968
72 1 0.253213 0.804553 0.100219
98 1 0.349984 0.937125 0.134808
572 2 0.327828 0.000872372 0.0871414
573 2 0.496817 0.926143 0.123325
74 1 0.656469 0.769952 0.128582
99 1 0.610557 0.917299 0.144508
75 1 0.968058 0.797635 0.0941069
569 2 0.728866 0.735889 0.170269
574 2 0.852921 0.875913 0.108867
100 1 0.870444 0.698617 0.104098
575 2 0.961058 0.895732 0.132051
81 1 0.978692 0.102998 0.168573
82 1 0.370151 0.279915 0.180267
107 1 0.184859 0.143717 0.213887
576 2 0.190213 0.12757 0.168899
83 1 0.504607 0.180889 0.158463
577 2 0.316958 0.105947 0.186126
578 2 0.536645 0.114145 0.195924
579 2 0.78591 0.115146 0.157262
85 1 0.890003 0.242315 0.145095
110 1 0.881719 0.209969 0.184064
87 1 0.231325 0.395603 0.175677
561 2 0.131219 0.455489 0.147031
581 2 0.114198 0.289904 0.195422
88 1 0.563217 0.488584 0.152709
112 1 0.324714 0.552721 0.20081
113 1 0.498288 0.490604 0.189527
582 2 0.276745 0.273885 0.213771
583 2 0.521744 0.300392 0.196352
84 1 0.611949 0.27978 0.163361
109 1 0.638393 0.236076 0.204521
589 2 0.643147 0.437109 0.180923
90 1 0.849796 0.388258 0.150995
584 2 0.760944 0.30044 0.172124
115 1 0.813057 0.473061 0.183781
585 2 0.951576 0.336198 0.174215
590 2 0.967575 0.522689 0.151692
91 1 0.107687 0.624622 0.137945
116 1 0.265847 0.557772 0.159817
586 2 0.167203 0.55722 0.190074
591 2 0.239089 0.716021 0.176297
92 1 0.420004 0.598912 0.168144
587 2 0.518296 0.65151 0.202919
592 2 0.378434 0.704258 0.201705
568 2 0.554925 0.730385 0.169802
588 2 0.649135 0.593792 0.17326
594 2 0.658441 0.788373 0.214012
95 1 0.8029 0.60934 0.165549
595 2 0.0748421 0.694899 0.193009
96 1 0.967775 0.664033 0.153803
97 1 0.212463 0.933669 0.168406
596 2 0.129681 0.833754 0.1833
78 1 0.493369 0.02753 0.163921
102 1 0.26846 0.976398 0.207702
597 2 0.363417 0.820082 0.176248
593 2 0.535597 0.883413 0.179728
124 1 0.596387 0.952273 0.22089
598 2 0.706157 0.973411 0.184471
580 2 0.880745 0.908135 0.174005
121 1 0.972754 0.85238 0.203217
599 2 0.789275 0.830576 0.201427
125 1 0.884041 0.769148 0.172922
600 2 0.760731 0.890801 0.141822
101 1 0.0515579 0.967448 0.179745
106 1 0.0345621 0.112848 0.205212
601 2 0.1087 0.0794976 0.241009
126 1 0.988334 0.0744353 0.276132
131 1 0.0157985 0.221733 0.267094
108 1 0.40166 0.149811 0.217291
602 2 0.386327 0.97861 0.237553
603 2 0.527329 0.0725465 0.239207
132 1 0.298124 0.149734 0.243323
133 1 0.502651 0.181943 0.268526
604 2 0.782451 0.150044 0.212156
608 2 0.54189 0.294562 0.242133
134 1 0.651208 0.136241 0.259553
605 2 0.975539 0.125233 0.237983
130 1 0.83564 0.0810146 0.264591
135 1 0.864262 0.220991 0.25364
111 1 0.0789277 0.439782 0.190537
606 2 0.120927 0.237853 0.238058
136 1 0.0640212 0.396408 0.233444
137 1 0.231322 0.358854 0.257248
607 2 0.395416 0.411695 0.213963
138 1 0.462039 0.437455 0.25274
114 1 0.591942 0.419886 0.217833
609 2 0.817068 0.290207 0.2194
139 1 0.697313 0.257233 0.239967
638 2 0.521477 0.496703 0.293363
610 2 0.972755 0.291558 0.215125
614 2 0.739482 0.456204 0.217013
140 1 0.908422 0.450982 0.215812
639 2 0.784928 0.377395 0.251318
117 1 0.185446 0.676277 0.219374
611 2 0.203498 0.439685 0.220208
616 2 0.0840553 0.786873 0.230638
617 2 0.210642 0.579169 0.247001
118 1 0.353359 0.645156 0.236283
612 2 0.322537 0.477333 0.243878
613 2 0.469046 0.545114 0.226578
119 1 0.641533 0.585964 0.224157
618 2 0.556998 0.722529 0.242499
619 2 0.762122 0.712054 0.236769
144 1 0.616961 0.590002 0.270801
120 1 0.782531 0.633278 0.202361
615 2 0.917587 0.575453 0.188248
620 2 0.910302 0.645028 0.22288
141 1 0.0385609 0.557314 0.217163
145 1 0.7484 0.554842 0.257296
122 1 0.241793 0.80379 0.209259
621 2 0.109949 0.94787 0.220226
127 1 0.231867 0.968743 0.251381
146 1 0.942846 0.797482 0.238805
147 1 0.226112 0.775041 0.249763
103 1 0.412191 0.984984 0.19569
123 1 0.491949 0.835613 0.214529
622 2 0.350029 0.82051 0.231097
623 2 0.512217 0.858097 0.253054
128 1 0.399344 0.970108 0.277861
148 1 0.401724 0.75973 0.268734
104 1 0.74124 0.0346104 0.235743
624 2 0.668456 0.843792 0.251416
129 1 0.61791 0.982162 0.264533
105 1 0.842278 0.0325278 0.195168
625 2 0.943373 0.979127 0.230207
150 1 0.798138 0.878415 0.240565
626 2 0.170508 0.186295 0.274217
151 1 0.00397881 0.0998874 0.314498
156 1 0.098686 0.264682 0.308304
651 2 0.184618 0.0842733 0.313426
627 2 0.345953 0.152124 0.276804
153 1 0.3608 0.987404 0.312803
158 1 0.424745 0.229867 0.30617
652 2 0.321874 0.124123 0.330994
628 2 0.532273 0.0575638 0.287329
629 2 0.715488 0.0780158 0.290205
154 1 0.627218 0.963396 0.317264
159 1 0.615838 0.20283 0.302213
630 2 0.874369 0.17476 0.29617
155 1 0.837994 0.0337531 0.311673
160 1 0.753938 0.212199 0.320075
655 2 0.85361 0.14112 0.342523
631 2 0.0846924 0.359373 0.272586
161 1 0.0304625 0.422796 0.309224
162 1 0.182919 0.402357 0.305811
656 2 0.156784 0.333714 0.338963
632 2 0.386943 0.279441 0.247217
637 2 0.370895 0.387689 0.285659
157 1 0.251731 0.268282 0.297234
633 2 0.538136 0.349858 0.281507
163 1 0.506215 0.377136 0.3168
164 1 0.677028 0.416763 0.300611
658 2 0.477533 0.267586 0.341994
659 2 0.642843 0.314352 0.338017
634 2 0.739245 0.257456 0.276993
635 2 0.939576 0.365888 0.256552
640 2 0.902515 0.5073 0.269254
165 1 0.849606 0.386851 0.292054
142 1 0.282019 0.505467 0.279012
636 2 0.0610248 0.523954 0.267715
641 2 0.0927685 0.708778 0.26226
167 1 0.151381 0.619202 0.296531
143 1 0.429883 0.599989 0.273099
642 2 0.273327 0.687316 0.284306
168 1 0.38181 0.511477 0.315857
662 2 0.25626 0.550633 0.335651
643 2 0.594439 0.665813 0.318608
644 2 0.727255 0.746964 0.27545
169 1 0.634565 0.420886 0.260587
663 2 0.556545 0.515301 0.333409
669 2 0.76853 0.689542 0.336117
645 2 0.870622 0.653175 0.26469
166 1 0.993771 0.602916 0.294968
170 1 0.763658 0.534248 0.298623
646 2 0.0636366 0.88529 0.256806
152 1 0.137007 0.0114539 0.282172
171 1 0.971893 0.779959 0.277136
172 1 0.126546 0.79841 0.298037
671 2 0.0701735 0.963056 0.31475
647 2 0.272732 0.855988 0.284746
648 2 0.51672 0.873526 0.296886
173 1 0.451157 0.693975 0.299337
672 2 0.372695 0.825981 0.31782
149 1 0.579653 0.746629 0.280835
174 1 0.684623 0.803574 0.315446
649 2 0.74889 0.929588 0.294329
650 2 0.902981 0.938276 0.267177
670 2 0.837173 0.764916 0.305401
674 2 0.771034 0.910693 0.330619
175 1 0.937088 0.900823 0.302977
176 1 0.0311036 0.0783799 0.353294
181 1 0.946532 0.243121 0.362214
182 1 0.140194 0.191534 0.351976
676 2 0.185758 0.999858 0.359653
183 1 0.409771 0.164848 0.360024
677 2 0.291492 0.0986314 0.380393
678 2 0.470022 0.00604759 0.37403
653 2 0.495086 0.101769 0.330534
654 2 0.64862 0.124673 0.335648
179 1 0.616438 0.967875 0.356531
184 1 0.559883 0.223556 0.372838
679 2 0.657971 0.0855366 0.395618
180 1 0.759459 0.0253836 0.356312
185 1 0.78628 0.185258 0.375508
680 2 0.902647 0.0770946 0.374851
661 2 0.0711995 0.539855 0.332933
186 1 0.0321254 0.388967 0.35042
187 1 0.250224 0.428389 0.357741
681 2 0.0777944 0.282887 0.381005
686 2 0.115228 0.490498 0.390112
657 2 0.342655 0.323185 0.326066
188 1 0.41549 0.438572 0.353291
213 1 0.370348 0.442063 0.406948
682 2 0.269461 0.252311 0.367905
683 2 0.440018 0.333455 0.384491
189 1 0.572864 0.411244 0.365189
684 2 0.68702 0.337454 0.379525
689 2 0.709039 0.505308 0.38175
660 2 0.937389 0.303215 0.321229
665 2 0.88148 0.491849 0.328197
190 1 0.802994 0.343274 0.344886
685 2 0.842851 0.330362 0.38583
666 2 0.0216236 0.707025 0.319722
191 1 0.0103766 0.572245 0.368022
192 1 0.15823 0.645204 0.35291
691 2 0.0801641 0.734378 0.381364
667 2 0.255467 0.713998 0.326055
193 1 0.415215 0.653116 0.340105
687 2 0.331725 0.570702 0.370839
692 2 0.281886 0.713268 0.3656
664 2 0.721105 0.538562 0.336004
668 2 0.541077 0.811496 0.342697
194 1 0.622004 0.659647 0.360935
688 2 0.485129 0.545588 0.368693
693 2 0.462477 0.703533 0.378945
694 2 0.779742 0.66778 0.375591
195 1 0.911184 0.660052 0.342779
690 2 0.871992 0.481873 0.36943
177 1 0.213228 0.921011 0.323573
197 1 0.145609 0.808139 0.342528
696 2 0.0771029 0.910124 0.363945
178 1 0.338333 0.993129 0.350923
198 1 0.38223 0.832427 0.358981
697 2 0.225271 0.847006 0.374596
698 2 0.526847 0.869855 0.384518
673 2 0.495433 0.9415 0.329225
199 1 0.706049 0.797111 0.36273
699 2 0.726865 0.938909 0.393451
675 2 0.923167 0.952907 0.348392
695 2 0.920563 0.714541 0.394977
196 1 0.000615662 0.830289 0.336029
200 1 0.85273 0.806013 0.355144
700 2 0.907389 0.961604 0.404018
201 1 0.0536627 0.0301553 0.391826
202 1 0.234445 0.975964 0.402727
206 1 0.918655 0.193267 0.404168
207 1 0.185781 0.191144 0.4046
231 1 0.028286 0.193836 0.468721
232 1 0.170957 0.237407 0.458866
701 2 0.0818097 0.110205 0.426522
203 1 0.384653 0.00731334 0.415728
208 1 0.423512 0.160411 0.40193
228 1 0.372116 0.97807 0.460919
233 1 0.393723 0.201874 0.462214
702 2 0.30377 0.132895 0.433554
209 1 0.598367 0.213242 0.413676
229 1 0.577828 0.0279643 0.457378
234 1 0.58906 0.244806 0.456649
703 2 0.480053 0.111059 0.441017
704 2 0.700069 0.110112 0.441079
205 1 0.801788 0.0843082 0.410409
230 1 0.803009 0.000283676 0.456966
235 1 0.759848 0.213326 0.461283
705 2 0.931273 0.0664637 0.437138
211 1 0.984956 0.40977 0.408541
212 1 0.202561 0.35176 0.402298
236 1 0.0209213 0.405097 0.457462
237 1 0.207 0.388857 0.445216
706 2 0.0654582 0.279326 0.42691
238 1 0.355673 0.410141 0.447297
707 2 0.329187 0.277869 0.413978
708 2 0.458104 0.291179 0.433532
713 2 0.506406 0.521176 0.425227
214 1 0.601484 0.417283 0.406618
239 1 0.541823 0.408534 0.451603
709 2 0.695034 0.321986 0.433416
714 2 0.692249 0.503692 0.443528
210 1 0.760619 0.224784 0.411829
215 1 0.779756 0.431998 0.408164
240 1 0.776141 0.3694 0.465123
710 2 0.902304 0.253442 0.449263
217 1 0.188688 0.626278 0.397059
241 1 0.974194 0.580455 0.454931
242 1 0.191401 0.610989 0.465878
711 2 0.0953795 0.501731 0.429828
218 1 0.372841 0.60579 0.411684
243 1 0.410764 0.627361 0.455548
712 2 0.255479 0.533726 0.429103
717 2 0.287266 0.729677 0.440224
219 1 0.652404 0.620803 0.400546
718 2 0.480048 0.717958 0.423505
719 2 0.741417 0.717808 0.435659
216 1 0.966194 0.560404 0.40399
220 1 0.800477 0.602867 0.412928
715 2 0.887067 0.46813 0.434822
720 2 0.919415 0.732297 0.434839
222 1 0.165666 0.817127 0.411476
227 1 0.237563 0.00811006 0.442883
716 2 0.0843624 0.676455 0.425371
247 1 0.187223 0.81053 0.462121
721 2 0.0804454 0.955795 0.433288
223 1 0.348655 0.812346 0.396385
248 1 0.412033 0.782522 0.458939
722 2 0.30322 0.876491 0.434139
204 1 0.549771 0.0134456 0.413655
224 1 0.676104 0.800251 0.403073
723 2 0.462415 0.873857 0.428962
724 2 0.699578 0.939825 0.429944
221 1 0.0164696 0.82771 0.410237
225 1 0.839689 0.836582 0.412885
226 1 0.0524514 0.0292294 0.46663
246 1 0.0307542 0.806267 0.469234
250 1 0.794524 0.827219 0.463523
725 2 0.93364 0.899865 0.441996
256 1 0.983063 0.160312 0.524427
257 1 0.225147 0.260317 0.511025
726 2 0.12172 0.136042 0.493802
258 1 0.375287 0.235042 0.496986
727 2 0.269413 0.108837 0.475077
752 2 0.305617 0.141689 0.54188
254 1 0.530281 0.99597 0.505678
259 1 0.541488 0.194583 0.509923
728 2 0.462894 0.0785796 0.478445
729 2 0.658 0.109265 0.485433
255 1 0.798167 0.979278 0.497407
260 1 0.820781 0.18766 0.505713
730 2 0.899925 0.0955936 0.482631
755 2 0.850883 0.096502 0.544857
262 1 0.200562 0.424376 0.517406
731 2 0.115505 0.352996 0.487414
732 2 0.267938 0.361571 0.480946
263 1 0.392799 0.40509 0.501935
733 2 0.522234 0.325284 0.485857
758 2 0.436311 0.305379 0.533384
264 1 0.59517 0.379674 0.514963
734 2 0.699173 0.300334 0.491395
739 2 0.68104 0.481468 0.481323
261 1 0.0195785 0.449376 0.510731
265 1 0.812138 0.404646 0.514023
735 2 0.960001 0.310163 0.500738
760 2 0.933584 0.34541 0.542734
267 1 0.237484 0.630588 0.512897
736 2 0.102496 0.521815 0.485676
741 2 0.0934896 0.694891 0.491846
737 2 0.320765 0.52585 0.483482
761 2 0.093975 0.570828 0.530069
268 1 0.40447 0.60363 0.523982
742 2 0.307319 0.708195 0.483842
738 2 0.495992 0.484071 0.482396
762 2 0.325716 0.468696 0.538247
244 1 0.583665 0.631617 0.451244
269 1 0.606093 0.610712 0.505024
743 2 0.499311 0.707569 0.485559
744 2 0.669975 0.722912 0.48024
245 1 0.786815 0.594693 0.464556
266 1 0.940034 0.592078 0.504758
270 1 0.781704 0.576027 0.502942
740 2 0.909553 0.471738 0.482581
745 2 0.916447 0.717731 0.474931
252 1 0.17562 0.0072606 0.510365
272 1 0.221843 0.80701 0.518589
746 2 0.12057 0.900276 0.4904
771 2 0.0943428 0.882861 0.528952
253 1 0.352022 0.98954 0.515088
273 1 0.379178 0.79489 0.511942
747 2 0.307551 0.872988 0.484092
249 1 0.594493 0.798132 0.451406
274 1 0.598433 0.831623 0.503979
748 2 0.508684 0.878015 0.476582
749 2 0.664353 0.924554 0.475109
773 2 0.481032 0.909597 0.543764
774 2 0.673702 0.95965 0.522604
251 1 0.00177547 0.0132921 0.513584
271 1 0.979693 0.762717 0.511795
275 1 0.758762 0.821578 0.507227
750 2 0.947059 0.891405 0.491368
281 1 0.00895549 0.217583 0.560012
282 1 0.184898 0.197014 0.570137
751 2 0.139734 0.136789 0.538347
776 2 0.100397 0.0992844 0.579131
278 1 0.383443 0.0124468 0.564021
283 1 0.390217 0.229149 0.56835
777 2 0.353591 0.113794 0.587761
778 2 0.51419 0.114751 0.586575
284 1 0.570635 0.245839 0.558869
753 2 0.475624 0.0949863 0.53703
754 2 0.67826 0.14095 0.531602
779 2 0.671149 0.0682132 0.60621
285 1 0.683363 0.182065 0.572319
780 2 0.863235 0.21275 0.570365
286 1 0.0416457 0.458479 0.553717
287 1 0.184625 0.478807 0.557837
756 2 0.117153 0.334857 0.544198
781 2 0.079345 0.299279 0.604836
288 1 0.387827 0.381299 0.565412
757 2 0.27067 0.299179 0.547488
782 2 0.238245 0.320049 0.586807
783 2 0.508915 0.318879 0.594884
289 1 0.61575 0.404519 0.570308
759 2 0.733253 0.299553 0.539446
784 2 0.682352 0.293078 0.603377
764 2 0.735978 0.457424 0.545951
290 1 0.80418 0.375778 0.574097
785 2 0.947361 0.355237 0.591507
292 1 0.112184 0.62055 0.569068
766 2 0.099255 0.72162 0.537619
786 2 0.103386 0.466433 0.596943
791 2 0.0863421 0.741381 0.592615
293 1 0.444455 0.620212 0.562419
767 2 0.276279 0.603059 0.551173
787 2 0.251776 0.48722 0.596051
792 2 0.288093 0.657434 0.588345
294 1 0.597423 0.57528 0.554832
763 2 0.503598 0.468449 0.541322
768 2 0.51632 0.74752 0.532241
769 2 0.699646 0.727181 0.541789
788 2 0.47084 0.49851 0.591713
789 2 0.71866 0.504505 0.589924
793 2 0.547931 0.737207 0.571927
794 2 0.701237 0.688967 0.594035
291 1 0.959899 0.631928 0.565475
295 1 0.802109 0.607113 0.56401
765 2 0.871673 0.541352 0.533268
770 2 0.880048 0.708168 0.538606
790 2 0.899587 0.501622 0.584434
795 2 0.875327 0.761536 0.586554
277 1 0.184017 0.990984 0.556113
297 1 0.218594 0.780179 0.568898
796 2 0.0987522 0.91933 0.58785
298 1 0.370669 0.769863 0.568521
772 2 0.314937 0.872001 0.544755
797 2 0.298369 0.898526 0.582681
798 2 0.456394 0.896785 0.580328
279 1 0.587679 0.0109601 0.564366
299 1 0.646333 0.855992 0.559899
799 2 0.756054 0.0263443 0.572517
276 1 0.0377303 0.0306854 0.549978
296 1 0.984938 0.844094 0.558521
300 1 0.805545 0.874638 0.55664
775 2 0.901738 0.939496 0.535872
800 2 0.910963 0.959255 0.577707
306 1 0.960702 0.162276 0.596335
307 1 0.28922 0.27983 0.631763
801 2 0.191037 0.20313 0.607583
326 1 0.048345 0.962449 0.65274
327 1 0.197559 0.0283748 0.665541
331 1 0.0847391 0.144606 0.646191
332 1 0.214766 0.205384 0.66221
303 1 0.433148 0.0259194 0.617438
802 2 0.278322 0.11231 0.636331
803 2 0.45905 0.135394 0.6541
328 1 0.422571 0.983581 0.659573
333 1 0.349936 0.223393 0.68735
304 1 0.566695 0.0243284 0.636015
309 1 0.59041 0.176775 0.62443
804 2 0.736768 0.104988 0.636824
329 1 0.566381 0.991892 0.673845
334 1 0.622041 0.161053 0.667768
280 1 0.854342 0.0534283 0.617133
305 1 0.918778 0.110755 0.648186
310 1 0.828868 0.257007 0.612696
335 1 0.842498 0.246903 0.655724
312 1 0.198167 0.42386 0.632294
806 2 0.104698 0.321292 0.651597
336 1 0.0115233 0.421249 0.673983
337 1 0.1774 0.468846 0.67752
308 1 0.44345 0.200511 0.613
313 1 0.365324 0.393183 0.612478
807 2 0.289944 0.362808 0.664367
808 2 0.492076 0.284013 0.645966
338 1 0.397365 0.454187 0.663209
314 1 0.585553 0.420982 0.617834
809 2 0.684265 0.333841 0.640948
814 2 0.68498 0.624281 0.629904
339 1 0.567927 0.420018 0.663389
311 1 0.990678 0.447834 0.629795
315 1 0.781957 0.443253 0.62221
810 2 0.976456 0.259401 0.630397
815 2 0.883196 0.55785 0.642401
340 1 0.84821 0.431069 0.663594
317 1 0.166609 0.643437 0.611855
811 2 0.110644 0.551128 0.644374
816 2 0.0174035 0.724203 0.624993
342 1 0.183599 0.704543 0.651267
318 1 0.359368 0.566645 0.617943
812 2 0.282035 0.554797 0.652447
817 2 0.334182 0.72508 0.637539
343 1 0.392536 0.639972 0.673058
319 1 0.566506 0.603277 0.602743
813 2 0.521524 0.540345 0.643409
818 2 0.496336 0.707453 0.643111
819 2 0.673832 0.769784 0.626137
316 1 0.00552081 0.572362 0.606352
320 1 0.825505 0.601035 0.608427
341 1 0.983517 0.658346 0.660664
345 1 0.758785 0.640609 0.668571
301 1 0.0122419 0.0118897 0.610395
302 1 0.178604 0.041283 0.607933
322 1 0.252464 0.783114 0.607714
821 2 0.104255 0.861934 0.629231
323 1 0.450847 0.712391 0.603493
822 2 0.284325 0.930025 0.621916
347 1 0.221191 0.859739 0.651698
348 1 0.406669 0.815392 0.666286
324 1 0.605999 0.866874 0.600031
823 2 0.47306 0.886138 0.621895
824 2 0.705835 0.954232 0.633417
820 2 0.844224 0.733921 0.636382
321 1 0.934259 0.866162 0.61318
325 1 0.761076 0.90063 0.597333
825 2 0.845751 0.942044 0.648821
826 2 0.047096 0.0381083 0.686572
352 1 0.208096 0.034815 0.712183
357 1 0.145411 0.167815 0.697386
851 2 0.0988198 0.108679 0.74148
827 2 0.317127 0.0631008 0.687381
828 2 0.490208 0.14339 0.692372
353 1 0.467646 0.071581 0.730238
358 1 0.39602 0.252231 0.723585
829 2 0.753532 0.177868 0.686469
854 2 0.692308 0.143893 0.73681
805 2 0.0317543 0.225662 0.679144
330 1 0.891004 0.0640879 0.685192
830 2 0.936214 0.053572 0.725969
356 1 0.990605 0.21294 0.723229
355 1 0.767569 0.0330584 0.71265
360 1 0.829687 0.185789 0.718987
831 2 0.135971 0.329482 0.688499
361 1 0.01481 0.361098 0.715991
362 1 0.1721 0.466781 0.723067
856 2 0.127237 0.271921 0.731394
832 2 0.265647 0.350259 0.713629
833 2 0.474472 0.320759 0.694824
363 1 0.402995 0.429699 0.727702
834 2 0.700737 0.31498 0.687562
839 2 0.687627 0.494542 0.683742
359 1 0.58573 0.210709 0.717371
364 1 0.616649 0.405634 0.7165
835 2 0.881301 0.30208 0.695067
365 1 0.830824 0.452278 0.708705
836 2 0.0885781 0.578913 0.683559
366 1 0.961099 0.702542 0.710779
367 1 0.229353 0.592711 0.702289
861 2 0.00349157 0.533851 0.720815
837 2 0.330365 0.489302 0.69802
842 2 0.263807 0.746063 0.684063
368 1 0.387771 0.619891 0.720002
344 1 0.587033 0.643282 0.671981
838 2 0.508568 0.514638 0.687441
843 2 0.478933 0.719543 0.698521
844 2 0.672173 0.732953 0.697653
369 1 0.59831 0.591107 0.710536
840 2 0.893514 0.563434 0.680403
845 2 0.855617 0.746673 0.685101
370 1 0.813351 0.648208 0.712597
841 2 0.110782 0.736263 0.687437
846 2 0.121182 0.903532 0.681265
371 1 0.0396059 0.795275 0.734477
372 1 0.169151 0.852957 0.715021
847 2 0.292298 0.905134 0.692959
848 2 0.468657 0.90624 0.695394
373 1 0.357481 0.788299 0.720051
349 1 0.564202 0.852513 0.655983
849 2 0.739085 0.0267197 0.674365
354 1 0.611136 0.0290487 0.72086
374 1 0.629408 0.873382 0.700043
346 1 0.978945 0.825473 0.664754
350 1 0.746103 0.810173 0.658678
850 2 0.952183 0.892533 0.706947
375 1 0.794516 0.898188 0.691671
377 1 0.182293 0.997538 0.762288
382 1 0.283934 0.103774 0.776599
876 2 0.127255 0.0565267 0.800131
852 2 0.304718 0.136112 0.733901
853 2 0.554091 0.161137 0.752643
378 1 0.429038 0.030952 0.7651
383 1 0.406794 0.196461 0.769309
877 2 0.377444 0.144566 0.814211
384 1 0.696069 0.30994 0.769415
878 2 0.519273 0.117339 0.795313
879 2 0.74329 0.152641 0.779581
380 1 0.792682 0.978335 0.775029
855 2 0.85349 0.136003 0.7534
376 1 0.953391 0.979945 0.766892
381 1 0.98346 0.178256 0.763953
385 1 0.843536 0.275799 0.778305
880 2 0.000690439 0.171934 0.820832
386 1 0.0644665 0.383013 0.757553
387 1 0.246827 0.428562 0.75831
881 2 0.149674 0.186608 0.768696
887 2 0.363115 0.509276 0.777113
857 2 0.270904 0.289106 0.754475
858 2 0.520839 0.333923 0.742129
863 2 0.482307 0.533827 0.747896
388 1 0.411369 0.359884 0.770727
882 2 0.327369 0.32238 0.800511
883 2 0.545823 0.279541 0.78295
859 2 0.741 0.317955 0.733261
389 1 0.650598 0.441598 0.75651
860 2 0.8972 0.318801 0.746018
865 2 0.893628 0.47408 0.751202
884 2 0.759113 0.378661 0.809805
390 1 0.776149 0.443961 0.774449
885 2 0.944488 0.431908 0.783223
866 2 0.10076 0.667233 0.750505
392 1 0.176833 0.543309 0.777903
886 2 0.0414896 0.551566 0.764346
862 2 0.2435 0.600324 0.744309
867 2 0.241576 0.75272 0.746701
393 1 0.382553 0.651101 0.757663
888 2 0.52767 0.4759 0.782608
864 2 0.730029 0.537156 0.732845
868 2 0.550215 0.718409 0.731224
869 2 0.690149 0.693302 0.734573
394 1 0.616112 0.593587 0.758656
889 2 0.648291 0.486461 0.797992
870 2 0.825646 0.780771 0.72591
391 1 0.944974 0.661977 0.754572
395 1 0.77159 0.608201 0.765538
890 2 0.902513 0.58576 0.78263
895 2 0.981805 0.723609 0.797856
351 1 0.0744834 0.968166 0.729465
871 2 0.117752 0.83521 0.766587
397 1 0.186634 0.724567 0.798369
872 2 0.342062 0.968786 0.731212
873 2 0.506686 0.910703 0.73697
398 1 0.291399 0.872797 0.766019
897 2 0.195516 0.882515 0.796167
898 2 0.448174 0.801245 0.765442
379 1 0.625373 0.0272551 0.758862
399 1 0.606191 0.750187 0.767048
874 2 0.689175 0.881986 0.747397
875 2 0.832211 0.950743 0.739583
396 1 0.936692 0.804917 0.770508
400 1 0.779889 0.77983 0.765095
401 1 0.0488625 0.0555907 0.843486
402 1 0.259961 0.0220739 0.81476
406 1 0.0265617 0.294402 0.787382
431 1 0.138503 0.166578 0.837449
902 2 0.339276 0.0763747 0.850523
409 1 0.550292 0.135385 0.840494
909 2 0.656646 0.215292 0.805037
405 1 0.880071 0.0217975 0.830655
410 1 0.897953 0.306179 0.815264
435 1 0.854292 0.156962 0.826576
905 2 0.88233 0.065702 0.864188
407 1 0.220416 0.176569 0.805703
412 1 0.16886 0.349964 0.788834
906 2 0.209327 0.336461 0.828129
911 2 0.926133 0.605009 0.821714
912 2 0.209237 0.502987 0.815462
408 1 0.301299 0.207798 0.838962
413 1 0.374002 0.430621 0.815873
438 1 0.413526 0.350923 0.861072
414 1 0.603214 0.358459 0.820086
908 2 0.462165 0.294181 0.828867
440 1 0.733287 0.26669 0.839727
913 2 0.456047 0.491721 0.850586
411 1 0.0616698 0.329223 0.823724
415 1 0.793806 0.525958 0.81632
910 2 0.945706 0.447276 0.824643
416 1 0.0696911 0.474311 0.805808
417 1 0.0518545 0.519556 0.84453
891 2 0.101487 0.613545 0.815734
418 1 0.419916 0.575618 0.821378
892 2 0.342978 0.751715 0.791331
443 1 0.310396 0.485345 0.849014
918 2 0.426959 0.69176 0.844119
419 1 0.579004 0.530418 0.829335
893 2 0.506788 0.657815 0.792397
894 2 0.667932 0.646249 0.806527
420 1 0.811778 0.724607 0.804132
920 2 0.911127 0.739956 0.834454
421 1 0.0881839 0.774494 0.824156
422 1 0.238161 0.786029 0.83536
896 2 0.00954219 0.903219 0.80221
916 2 0.0680571 0.701864 0.860835
921 2 0.984162 0.887096 0.847067
922 2 0.119677 0.920895 0.831686
403 1 0.446619 0.0161973 0.819231
423 1 0.377725 0.91975 0.794849
404 1 0.544655 0.907398 0.781499
424 1 0.556308 0.782143 0.816745
899 2 0.689824 0.830651 0.793544
904 2 0.66016 0.0564397 0.799755
919 2 0.707666 0.794909 0.834425
923 2 0.577871 0.942261 0.822764
924 2 0.726624 0.965066 0.833118
425 1 0.832973 0.866208 0.819201
900 2 0.947726 0.0552523 0.799016
925 2 0.794833 0.708634 0.86916
432 1 0.237764 0.111636 0.91406
901 2 0.190672 0.0394837 0.875717
926 2 0.0161465 0.0370244 0.908581
427 1 0.338349 0.0437979 0.889661
433 1 0.422749 0.198585 0.860503
903 2 0.471151 0.0589859 0.866813
907 2 0.20047 0.221205 0.869817
932 2 0.3132 0.227381 0.895483
429 1 0.72293 0.111162 0.843146
434 1 0.619841 0.142196 0.878835
929 2 0.790225 0.154785 0.880578
930 2 0.0703707 0.136511 0.878817
935 2 0.835181 0.332415 0.882371
950 2 0.879574 0.98058 0.893252
936 2 0.10658 0.359625 0.86477
937 2 0.200576 0.512486 0.878032
437 1 0.249521 0.358273 0.881548
463 1 0.454248 0.501344 0.886571
439 1 0.567274 0.359142 0.859348
914 2 0.728599 0.428736 0.845405
934 2 0.685077 0.283126 0.879227
436 1 0.94365 0.280242 0.854194
915 2 0.891691 0.452543 0.85996
931 2 0.0656011 0.288035 0.899243
940 2 0.977535 0.429455 0.889469
441 1 0.03546 0.594548 0.887239
442 1 0.180922 0.649783 0.899727
941 2 0.0468761 0.828654 0.900147
917 2 0.25509 0.63012 0.82966
942 2 0.316627 0.595316 0.873758
444 1 0.612877 0.671662 0.856523
939 2 0.631343 0.511347 0.869531
943 2 0.57856 0.740968 0.889718
944 2 0.708642 0.646425 0.891797
445 1 0.75581 0.585012 0.849017
470 1 0.824382 0.554452 0.881508
945 2 0.936781 0.625647 0.855537
426 1 0.0518142 0.956047 0.876749
447 1 0.183713 0.844112 0.8711
472 1 0.304658 0.730381 0.880426
946 2 0.150953 0.960842 0.91571
428 1 0.291313 0.927371 0.845147
448 1 0.430569 0.839869 0.829746
947 2 0.338724 0.869181 0.879639
948 2 0.491897 0.915323 0.887736
449 1 0.546845 0.81266 0.857359
949 2 0.612133 0.986318 0.863498
430 1 0.803165 0.881699 0.863034
446 1 0.919532 0.838055 0.88578
450 1 0.668507 0.845547 0.876517
451 1 0.0154449 0.18314 0.928213
927 2 0.326127 0.0491809 0.954488
951 2 0.172085 0.21683 0.96621
458 1 0.431941 0.24489 0.93116
928 2 0.461779 0.0462111 0.917337
478 1 0.497771 0.101849 0.951258