ITEM: TIMESTEP
11960
ITEM: NUMBER OF ATOMS
1000
ITEM: BOX BOUNDS pp pp pp
0.0000000000000000e+00 6.2996052494743662e+00
0.0000000000000000e+00 6.2996052494743662e+00
0.0000000000000000e+00 2.5198420997897465e+01
ITEM: ATOMS id type xs ys zs
46 1 0.0567134 0.0578422 0.0299427
486 1 0.975189 0.182025 0.0376714
13 1 0.226536 0.207546 0.0216214
28 1 0.345605 0.167988 0.0464926
526 2 0.424533 0.272768 0.0702855
17 1 0.49311 0.172467 0.0426608
498 1 0.436382 0.00694716 0.0331729
454 1 0.399273 0.302209 0.0296683
529 2 0.668598 0.14747 0.0328532
573 2 0.551605 0.290817 0.0222308
571 2 0.586434 0.0130205 0.0136947
36 1 0.708956 0.211109 0.998669
544 2 0.838799 0.267408 0.0382523
534 2 0.803134 0.927785 0.0664499
507 2 0.895788 0.00877983 0.0376633
100 1 0.894531 0.0637527 0.0899932
16 1 0.0811528 0.190746 0.00377282
528 2 0.138072 0.177334 0.0482618
510 2 0.152845 0.32897 0.00898146
987 2 0.129985 0.632848 0.027646
927 2 0.167497 0.472093 0.990237
532 2 0.0665926 0.469546 0.0196582
489 1 0.340882 0.43109 0.00357162
63 1 0.397401 0.588377 0.0197407
979 2 0.447411 0.320892 0.992977
506 2 0.580829 0.553267 0.0236386
999 2 0.680187 0.437714 0.00683153
982 2 0.68786 0.317692 0.0386631
512 2 0.44039 0.435502 0.0420402
477 1 0.983996 0.323006 0.996583
485 1 0.869249 0.441062 0.011161
977 2 0.996631 0.334691 0.0339024
73 1 0.796155 0.433115 0.05009
963 2 0.271235 0.703762 0.0297392
86 1 0.00468726 0.616516 0.0488933
514 2 0.400591 0.731859 0.0530436
980 2 0.252598 0.627699 0.990945
989 2 0.789536 0.54831 0.0216509
998 2 0.565476 0.579806 0.0722413
33 1 0.710128 0.639427 0.0493862
978 2 0.449218 0.660659 0.991742
947 2 0.549834 0.695223 0.0382715
961 2 0.950308 0.566475 0.00449431
545 2 0.867032 0.699062 0.0284439
31 1 0.720985 0.67133 0.00531785
997 2 0.231425 0.786125 0.0681567
37 1 0.0838997 0.787529 0.0456418
525 2 0.166329 0.941761 0.0527541
524 2 0.1755 0.919815 0.00473214
18 1 0.334843 0.89921 0.0400442
918 2 0.258149 0.0480992 0.0326561
9 1 0.43223 0.850379 0.0106411
12 1 0.510061 0.835578 0.0436264
95 1 0.682893 0.819675 0.0353787
29 1 0.745223 0.954293 0.0248088
971 2 0.594487 0.795596 0.0698757
488 1 0.0373429 0.854814 0.00105211
21 1 0.935178 0.798301 0.0569713
936 2 0.0446151 0.0184271 0.986163
549 2 0.0248186 0.905567 0.0342062
11 1 0.0715855 0.252047 0.0786742
985 2 0.160015 0.419245 0.0909352
560 2 0.250202 0.0572013 0.0702463
600 2 0.572144 0.307571 0.0666247
48 1 0.432082 0.0605028 0.0706595
548 2 0.55745 0.982999 0.0556762
27 1 0.820349 0.129949 0.0579521
503 2 0.51694 0.291131 0.108153
1 1 0.000263046 0.143261 0.11301
565 2 0.704845 0.0600405 0.107458
598 2 0.811783 0.178113 0.105543
41 1 0.90214 0.251475 0.0772239
85 1 0.227857 0.498539 0.0294922
77 1 0.968059 0.453303 0.0979486
581 2 0.19464 0.321479 0.0592761
7 1 0.299294 0.445895 0.0653439
527 2 0.353248 0.365634 0.0943341
52 1 0.285505 0.198056 0.092351
551 2 0.221871 0.56794 0.0921169
521 2 0.674538 0.249565 0.089019
552 2 0.591684 0.437142 0.0453273
35 1 0.785225 0.357011 0.0815685
981 2 0.929149 0.387444 0.0652591
89 1 0.887228 0.316812 0.117307
65 1 0.142377 0.614874 0.0628448
957 2 0.0872238 0.465361 0.0596667
10 1 0.849979 0.740966 0.125427
517 2 0.07205 0.557953 0.100837
70 1 0.0440318 0.703012 0.084768
64 1 0.784347 0.591526 0.107631
519 2 0.529982 0.695661 0.108255
547 2 0.367118 0.569699 0.101478
56 1 0.423413 0.578248 0.0642392
523 2 0.18198 0.735339 0.100371
511 2 0.708836 0.52276 0.0725238
15 1 0.673736 0.668588 0.0861466
531 2 0.426659 0.449201 0.168439
537 2 0.377413 0.721683 0.0917785
520 2 0.865576 0.594183 0.0582917
40 1 0.903048 0.647618 0.0938755
533 2 0.803579 0.446703 0.114613
967 2 0.995459 0.989095 0.0707862
44 1 0.00570198 0.990648 0.117629
546 2 0.0893671 0.876779 0.0936634
57 1 0.109091 0.0492804 0.0914643
39 1 0.93211 0.846467 0.0912332
23 1 0.236839 0.929439 0.0863012
543 2 0.496424 0.98219 0.102332
559 2 0.382604 0.86581 0.078512
516 2 0.675194 0.0459331 0.066665
96 1 0.56669 0.0998689 0.0940366
577 2 0.479139 0.839698 0.115712
502 2 0.790089 0.771975 0.0795965
575 2 0.815761 0.942477 0.110885
80 1 0.944768 0.226953 0.148833
566 2 0.0602718 0.119576 0.17104
82 1 0.175256 0.15714 0.11521
105 1 0.979422 0.988283 0.188889
580 2 0.976892 0.277669 0.190614
101 1 0.109469 0.229389 0.144335
555 2 0.307621 0.0124371 0.117859
599 2 0.508372 0.148344 0.139364
93 1 0.317776 0.196086 0.1672
92 1 0.4104 0.13948 0.104438
99 1 0.638987 0.111592 0.159402
79 1 0.653226 0.374195 0.108615
34 1 0.691822 0.210403 0.128299
59 1 0.728823 0.958824 0.143702
554 2 0.834718 0.0452376 0.165411
590 2 0.0500666 0.344465 0.112916
582 2 0.853684 0.388186 0.165869
83 1 0.204485 0.304727 0.117678
564 2 0.981476 0.39225 0.148422
595 2 0.145949 0.482597 0.180964
125 1 0.135963 0.479114 0.142008
538 2 0.263591 0.467555 0.125283
561 2 0.263148 0.401062 0.161996
78 1 0.350422 0.255445 0.136999
556 2 0.385022 0.310864 0.187522
558 2 0.520082 0.435516 0.0875799
50 1 0.583496 0.54868 0.115798
62 1 0.452211 0.43939 0.123879
26 1 0.794602 0.178404 0.154584
604 2 0.728012 0.359133 0.148158
94 1 0.756102 0.536047 0.150168
54 1 0.999501 0.427068 0.190443
84 1 0.705181 0.445683 0.184717
550 2 0.14648 0.818188 0.141192
553 2 0.0434287 0.671676 0.136112
98 1 0.932745 0.770426 0.159155
91 1 0.167247 0.615223 0.157038
38 1 0.387717 0.698115 0.13172
570 2 0.531017 0.666685 0.205899
141 1 0.32556 0.587065 0.150604
97 1 0.262695 0.736998 0.151498
509 2 0.484059 0.581852 0.143281
116 1 0.419226 0.658598 0.174641
14 1 0.601373 0.611656 0.168666
90 1 0.63048 0.852601 0.145489
66 1 0.646707 0.665902 0.137483
594 2 0.948731 0.553416 0.133401
42 1 0.0134483 0.819541 0.126783
541 2 0.0309952 0.892005 0.16028
542 2 0.166614 0.965311 0.131983
53 1 0.282685 0.924238 0.158316
597 2 0.320871 0.839255 0.114193
589 2 0.35233 0.0760446 0.149462
88 1 0.42846 0.85854 0.152167
69 1 0.528327 0.909485 0.184334
539 2 0.572172 0.984876 0.143178
139 1 0.518767 0.732551 0.156096
513 2 0.669178 0.91822 0.0944587
576 2 0.863881 0.0931673 0.129191
60 1 0.896508 0.931387 0.143823
587 2 0.698718 0.787309 0.119508
540 2 0.757449 0.791777 0.161632
68 1 0.668504 0.970322 0.188273
610 2 0.00198979 0.148478 0.213008
638 2 0.27158 0.256997 0.205086
118 1 0.2306 0.0924848 0.192312
74 1 0.382828 0.102349 0.202484
586 2 0.486405 0.343304 0.218974
583 2 0.199697 0.0744842 0.15697
112 1 0.48195 0.20234 0.176955
76 1 0.485172 0.31511 0.148146
110 1 0.515753 0.188285 0.217786
157 1 0.527593 0.0473144 0.193129
579 2 0.569154 0.0761473 0.240333
150 1 0.795223 0.308125 0.196739
109 1 0.799335 0.153532 0.198993
605 2 0.886575 0.111896 0.23531
535 2 0.0497488 0.492018 0.226392
107 1 0.110451 0.22654 0.193778
651 2 0.176193 0.361505 0.215588
128 1 0.175398 0.171974 0.226352
87 1 0.284604 0.521759 0.185952
611 2 0.336567 0.395724 0.216488
608 2 0.528036 0.503406 0.19112
557 2 0.604273 0.447131 0.151975
671 2 0.660503 0.244154 0.16961
607 2 0.646294 0.28346 0.210493
601 2 0.946588 0.295805 0.236089
81 1 0.795075 0.442479 0.215372
104 1 0.917501 0.533843 0.204847
111 1 0.00348647 0.563719 0.169168
622 2 0.0642687 0.645079 0.211987
606 2 0.183641 0.549751 0.215282
618 2 0.161457 0.50579 0.253743
591 2 0.249495 0.658039 0.230895
632 2 0.237555 0.673237 0.195165
142 1 0.468545 0.66955 0.241127
72 1 0.407189 0.582054 0.208783
67 1 0.518684 0.534183 0.234645
592 2 0.700497 0.534766 0.252144
635 2 0.646763 0.556917 0.216607
563 2 0.724877 0.621932 0.184744
615 2 0.856011 0.635216 0.163263
108 1 0.886993 0.679298 0.203059
122 1 0.0527171 0.700507 0.174766
596 2 0.152273 0.965338 0.195892
642 2 0.0305423 0.831072 0.201804
536 2 0.398912 0.972225 0.176881
578 2 0.204907 0.813138 0.178202
127 1 0.302321 0.929158 0.208277
613 2 0.351911 0.755547 0.2172
562 2 0.452628 0.788261 0.187551
572 2 0.610796 0.929169 0.223518
144 1 0.629246 0.803406 0.18556
593 2 0.682696 0.72251 0.218867
117 1 0.842672 0.990268 0.208897
530 2 0.873726 0.865352 0.183386
55 1 0.660974 0.120733 0.209847
648 2 0.881648 0.786415 0.228242
602 2 0.197171 0.146147 0.266781
172 1 0.0765646 0.145199 0.28926
102 1 0.0685763 0.0749934 0.249449
603 2 0.292346 0.0881998 0.236049
134 1 0.459077 0.961792 0.218339
131 1 0.535012 0.953 0.269016
137 1 0.331674 0.22822 0.279865
124 1 0.41789 0.0873497 0.25809
653 2 0.610522 0.0772678 0.275851
151 1 0.731949 0.0921484 0.247509
623 2 0.669244 0.229208 0.250785
569 2 0.090667 0.26426 0.252274
667 2 0.945172 0.17519 0.265078
652 2 0.816587 0.280452 0.283331
140 1 0.257235 0.358951 0.25118
145 1 0.18115 0.308464 0.286831
166 1 0.148676 0.43812 0.294533
636 2 0.31226 0.439003 0.282546
626 2 0.348526 0.240868 0.240624
675 2 0.421507 0.389401 0.25518
612 2 0.500978 0.175735 0.286952
138 1 0.502368 0.252115 0.255097
637 2 0.636058 0.307261 0.284079
585 2 0.788008 0.243092 0.228996
634 2 0.914231 0.438074 0.243301
135 1 0.0369151 0.404081 0.267792
120 1 0.0140903 0.779175 0.247754
624 2 0.305806 0.643777 0.268003
620 2 0.0106932 0.644513 0.288347
617 2 0.357923 0.543518 0.242561
146 1 0.448758 0.543566 0.27227
103 1 0.379576 0.820614 0.25358
164 1 0.460877 0.710067 0.278334
114 1 0.446418 0.350655 0.289634
115 1 0.59281 0.659378 0.26013
670 2 0.592218 0.403535 0.256208
123 1 0.611175 0.488224 0.289633
665 2 0.800525 0.634794 0.229811
609 2 0.139403 0.648818 0.263087
169 1 0.98954 0.625681 0.248731
629 2 0.842656 0.616962 0.268933
567 2 0.963797 0.941378 0.229149
616 2 0.192796 0.816653 0.217669
121 1 0.0241099 0.929719 0.265095
672 2 0.192543 0.832819 0.255947
568 2 0.181018 0.991843 0.241573
153 1 0.31298 0.957208 0.264308
149 1 0.514228 0.815313 0.226068
147 1 0.435485 0.85958 0.29394
113 1 0.763326 0.853628 0.21041
647 2 0.624369 0.816993 0.253645
160 1 0.77619 0.75095 0.253306
588 2 0.79216 0.938359 0.242795
175 1 0.0271678 0.0219931 0.309826
614 2 0.839964 0.0396407 0.278722
621 2 0.903671 0.819845 0.273845
646 2 0.218839 0.196712 0.312779
182 1 0.14731 0.224853 0.351089
680 2 0.143551 0.0531992 0.332712
163 1 0.31756 0.0877125 0.298329
197 1 0.4607 0.113106 0.327616
183 1 0.438622 0.00919725 0.298274
640 2 0.607814 0.141353 0.316184
658 2 0.635841 0.955245 0.343189
627 2 0.736568 0.0802604 0.349902
628 2 0.73223 1.7926e-05 0.312966
119 1 0.00924617 0.275363 0.295691
126 1 0.759747 0.155104 0.308313
180 1 0.901542 0.143869 0.304555
185 1 0.00831748 0.159059 0.33189
661 2 0.320123 0.493807 0.317559
106 1 0.112996 0.32153 0.321447
584 2 0.978491 0.414746 0.307269
687 2 0.945248 0.321759 0.334511
201 1 0.320993 0.308238 0.333329
650 2 0.478854 0.267956 0.325492
657 2 0.235465 0.42637 0.356149
167 1 0.428474 0.429231 0.341382
136 1 0.439225 0.22662 0.36136
662 2 0.650366 0.232462 0.344279
158 1 0.60618 0.360731 0.319989
129 1 0.819474 0.434756 0.291907
217 1 0.765684 0.390735 0.355366
133 1 0.815775 0.226348 0.354133
161 1 0.766166 0.380462 0.255329
699 2 0.75143 0.315091 0.317499
666 2 0.858199 0.453894 0.330993
194 1 0.712601 0.51039 0.319945
645 2 0.272821 0.552995 0.3722
641 2 0.183814 0.611977 0.3037
191 1 0.0349418 0.599318 0.327906
720 2 0.284249 0.626714 0.334834
168 1 0.467193 0.492927 0.306283
619 2 0.538798 0.658701 0.326408
171 1 0.453198 0.582255 0.356587
143 1 0.55375 0.387582 0.372873
697 2 0.296673 0.712304 0.300403
630 2 0.705571 0.623176 0.292403
148 1 0.569573 0.499901 0.334716
198 1 0.597068 0.560721 0.368786
643 2 0.704113 0.46596 0.384044
170 1 0.708622 0.696379 0.32447
130 1 0.94241 0.51325 0.280995
649 2 0.860431 0.643024 0.318585
176 1 0.16585 0.0148413 0.289459
700 2 0.994645 0.883874 0.333967
207 1 0.0950123 0.729769 0.324007
247 1 0.114834 0.779458 0.289565
177 1 0.302006 0.943403 0.317709
696 2 0.250379 0.864921 0.288559
231 1 0.15613 0.864214 0.323592
691 2 0.304362 0.778282 0.34476
673 2 0.440707 0.775484 0.329485
154 1 0.587413 0.768191 0.299055
190 1 0.577061 0.929145 0.305721
152 1 0.952965 0.774881 0.309617
625 2 0.730071 0.901605 0.278852
639 2 0.804478 0.736861 0.2902
196 1 0.0141876 0.733659 0.355727
155 1 0.870798 0.918006 0.302554
195 1 0.615574 0.789686 0.337846
677 2 0.0895111 0.149423 0.390254
211 1 0.181075 0.210244 0.417718
656 2 0.00640897 0.277064 0.372925
706 2 0.313152 0.0988792 0.335613
678 2 0.589611 0.102916 0.354547
702 2 0.247438 0.969212 0.355387
187 1 0.525542 0.0884821 0.388153
188 1 0.180062 0.0546963 0.379776
238 1 0.406979 0.0470632 0.358045
655 2 0.753502 0.837484 0.317731
633 2 0.68709 0.0570836 0.419518
698 2 0.660556 0.00180866 0.386647
159 1 0.812203 0.0333932 0.383092
679 2 0.89911 0.0366269 0.327701
179 1 0.959403 0.119143 0.369162
736 2 0.23899 0.225328 0.380293
213 1 0.347543 0.129232 0.385534
156 1 0.146092 0.481243 0.32879
162 1 0.456651 0.187883 0.410875
669 2 0.477538 0.348984 0.406902
132 1 0.355667 0.362522 0.385253
686 2 0.726439 0.14624 0.383176
244 1 0.842437 0.398065 0.406173
692 2 0.610407 0.243562 0.378782
664 2 0.780985 0.305745 0.385992
718 2 0.665332 0.355109 0.407582
165 1 0.910628 0.254499 0.400014
184 1 0.0872856 0.302977 0.434542
693 2 0.947201 0.424893 0.36664
216 1 0.922757 0.587452 0.361286
220 1 0.088912 0.483898 0.372032
199 1 0.13777 0.639843 0.357318
205 1 0.12329 0.699935 0.389667
225 1 0.173148 0.793906 0.363616
631 2 0.419297 0.507329 0.390103
221 1 0.272535 0.701615 0.387564
725 2 0.441633 0.719598 0.397714
173 1 0.569587 0.641472 0.395848
676 2 0.695402 0.699647 0.366197
644 2 0.764857 0.550692 0.354034
186 1 0.0112501 0.441879 0.406072
275 1 0.873521 0.577378 0.410066
674 2 0.833641 0.750794 0.347301
682 2 0.038216 0.00168134 0.360902
660 2 0.0424062 0.864181 0.38308
178 1 0.458273 0.949985 0.335099
223 1 0.494993 0.723398 0.36206
202 1 0.402389 0.851172 0.369267
174 1 0.655838 0.787388 0.402073
724 2 0.574903 0.860521 0.369954
690 2 0.963002 0.994386 0.391897
654 2 0.876678 0.922601 0.356452
200 1 0.871026 0.81712 0.388159
719 2 0.735332 0.854365 0.366343
236 1 0.149933 0.998658 0.414448
261 1 0.26591 0.339278 0.433089
235 1 0.347895 0.109904 0.427138
232 1 0.450362 0.989468 0.407823
214 1 0.44462 0.91917 0.456788
684 2 0.647829 0.117505 0.465752
233 1 0.467631 0.099886 0.453855
705 2 0.781391 0.154391 0.44993
717 2 0.753709 0.992367 0.451581
716 2 0.617436 0.21946 0.431508
729 2 0.633262 0.991968 0.496865
189 1 0.835419 0.141268 0.413258
715 2 0.94036 0.0691392 0.461616
659 2 0.936811 0.25158 0.444961
181 1 0.0219922 0.124556 0.435644
321 1 0.0732474 0.123499 0.477531
710 2 0.167984 0.348721 0.390832
242 1 0.403728 0.439114 0.434794
265 1 0.201796 0.207189 0.453985
688 2 0.279702 0.484589 0.408913
714 2 0.468489 0.453139 0.47079
239 1 0.517699 0.354411 0.44293
689 2 0.664902 0.343054 0.457437
739 2 0.567427 0.381626 0.491023
240 1 0.741304 0.435631 0.433928
734 2 0.558681 0.232989 0.473156
192 1 0.0351148 0.405749 0.461211
709 2 0.79199 0.291761 0.433099
215 1 0.819595 0.302457 0.473779
203 1 0.175706 0.60476 0.417524
745 2 0.0537863 0.734186 0.439795
222 1 0.0108133 0.557214 0.440029
296 1 0.145057 0.444312 0.431771
695 2 0.158677 0.613594 0.4713
193 1 0.525556 0.527504 0.417767
237 1 0.380538 0.629069 0.421253
204 1 0.580074 0.718961 0.435384
722 2 0.424406 0.758875 0.44082
723 2 0.716325 0.60606 0.404532
721 2 0.608439 0.489814 0.447737
663 2 0.740623 0.600676 0.445704
737 2 0.828047 0.683598 0.387182
767 2 0.910103 0.431933 0.444771
246 1 0.967946 0.697073 0.400195
685 2 0.698433 0.462373 0.48251
774 2 0.874411 0.779307 0.485699
212 1 0.268591 0.887348 0.383982
257 1 0.268916 0.914676 0.435011
681 2 0.0255166 0.89933 0.421944
755 2 0.0100877 0.826852 0.464624
746 2 0.15926 0.818958 0.416972
707 2 0.315054 0.804168 0.415394
208 1 0.528704 0.860615 0.423671
708 2 0.328035 0.824194 0.463975
683 2 0.60441 0.959454 0.447719
703 2 0.771588 0.92306 0.410196
228 1 0.685017 0.838195 0.44038
229 1 0.807138 0.717704 0.423247
209 1 0.893878 0.834522 0.436663
224 1 0.876299 0.925832 0.467082
749 2 0.88914 0.0103445 0.426269
251 1 0.0484814 0.968622 0.453578
732 2 0.280771 0.348858 0.4732
753 2 0.339719 0.167337 0.473104
735 2 0.183538 0.0528706 0.449099
763 2 0.18196 0.272024 0.507464
264 1 0.49611 0.0491716 0.495842
731 2 0.356047 0.00704555 0.503433
778 2 0.547339 0.24108 0.510195
255 1 0.408619 0.875741 0.493467
804 2 0.712435 0.17559 0.508442
711 2 0.0429579 0.274746 0.485577
250 1 0.784624 0.0541449 0.489573
284 1 0.232007 0.0759683 0.49295
210 1 0.955884 0.108671 0.504104
759 2 0.774396 0.236737 0.541654
260 1 0.853134 0.242293 0.508989
272 1 0.125816 0.457106 0.487519
262 1 0.958581 0.556266 0.47741
765 2 0.978894 0.391749 0.50316
747 2 0.255887 0.431301 0.512197
742 2 0.349427 0.216229 0.508827
712 2 0.256959 0.537635 0.444304
234 1 0.380077 0.249947 0.43844
738 2 0.430205 0.311022 0.483744
792 2 0.305856 0.52526 0.482568
259 1 0.431206 0.324045 0.532339
230 1 0.716841 0.354402 0.506855
779 2 0.483666 0.601428 0.449859
219 1 0.588204 0.372158 0.5398
740 2 0.85749 0.444202 0.489243
761 2 0.740763 0.393086 0.548932
206 1 0.922452 0.672468 0.449009
762 2 0.0388522 0.566438 0.512886
273 1 0.936535 0.629132 0.547314
267 1 0.194521 0.568039 0.51445
766 2 0.205845 0.715395 0.499494
713 2 0.350502 0.643149 0.461432
218 1 0.49065 0.719967 0.484772
269 1 0.466482 0.443281 0.515586
744 2 0.700373 0.543306 0.513814
694 2 0.574867 0.556128 0.488814
748 2 0.540367 0.575935 0.527125
300 1 0.664168 0.700085 0.512019
245 1 0.802768 0.624633 0.479252
314 1 0.901786 0.626362 0.509547
780 2 0.21085 0.96199 0.528767
278 1 0.171516 0.794874 0.467499
726 2 0.166544 0.955138 0.478633
727 2 0.549703 0.827569 0.460823
741 2 0.24665 0.702698 0.441307
266 1 0.381561 0.934874 0.538517
733 2 0.322548 0.0316323 0.460828
227 1 0.346137 0.746198 0.502528
279 1 0.560439 0.875113 0.524886
668 2 0.653981 0.692611 0.470746
243 1 0.806309 0.888602 0.510353
772 2 0.710465 0.841413 0.48042
823 2 0.701729 0.923622 0.537389
308 1 0.844293 0.0163834 0.527342
701 2 0.0413516 0.687169 0.481489
799 2 0.981144 0.93728 0.494331
770 2 0.939297 0.810706 0.516679
793 2 0.0964616 0.864759 0.511451
287 1 0.316694 0.0960253 0.538048
256 1 0.108346 0.999549 0.56513
788 2 0.203291 0.285411 0.567527
757 2 0.146578 0.170658 0.538364
802 2 0.223174 0.139704 0.583223
310 1 0.342484 0.225248 0.560939
809 2 0.492574 0.104043 0.574292
289 1 0.454427 0.15929 0.53398
277 1 0.66083 0.220212 0.579412
294 1 0.82586 0.178361 0.578435
789 2 0.746104 0.0458232 0.556883
824 2 0.640222 0.142203 0.54347
290 1 0.0870627 0.026969 0.521645
791 2 0.0109874 0.249081 0.523069
280 1 0.951517 0.111432 0.545315
298 1 0.226326 0.468313 0.575282
286 1 0.0342465 0.310633 0.569107
295 1 0.0891552 0.392627 0.52981
299 1 0.130465 0.558303 0.552263
728 2 0.273034 0.331266 0.537261
764 2 0.360158 0.38596 0.577606
771 2 0.287454 0.18504 0.616721
270 1 0.517683 0.244669 0.562305
285 1 0.467237 0.459357 0.555409
366 1 0.609636 0.521642 0.559315
790 2 0.886432 0.315264 0.558061
274 1 0.84164 0.497959 0.529246
320 1 0.745712 0.323694 0.588947
315 1 0.990718 0.479857 0.556333
775 2 0.247909 0.681804 0.553875
797 2 0.103293 0.711611 0.561621
249 1 0.348655 0.594787 0.516552
263 1 0.299048 0.479401 0.545489
293 1 0.386761 0.547952 0.583397
248 1 0.402693 0.432859 0.612662
769 2 0.417125 0.640111 0.556743
254 1 0.713152 0.636198 0.54557
226 1 0.567348 0.516171 0.594212
783 2 0.688428 0.803223 0.592859
241 1 0.870215 0.570793 0.577474
750 2 0.687747 0.648959 0.592806
754 2 0.0549447 0.706625 0.526252
297 1 0.97094 0.702947 0.581152
752 2 0.26129 0.872602 0.498521
751 2 0.0968535 0.854166 0.552142
798 2 0.239365 0.812457 0.538046
796 2 0.235649 0.901258 0.568394
743 2 0.378398 0.790135 0.560962
258 1 0.473161 0.742828 0.530651
348 1 0.450703 0.939371 0.571599
309 1 0.536146 0.00317241 0.541596
704 2 0.78261 0.776628 0.532357
322 1 0.635919 0.796871 0.550031
282 1 0.613125 0.981916 0.57441
306 1 0.825208 0.897867 0.560446
730 2 0.963203 0.941869 0.541163
350 1 0.809249 0.736657 0.576541
291 1 0.143571 0.275572 0.614635
302 1 0.0743899 0.121827 0.615962
760 2 0.370932 0.0584653 0.594773
758 2 0.490422 0.992477 0.607354
756 2 0.352725 0.00493632 0.630968
372 1 0.485408 0.110078 0.63254
335 1 0.617487 0.257207 0.619461
311 1 0.831972 0.21976 0.613675
784 2 0.895679 0.0620352 0.609457
776 2 0.953594 0.244881 0.594245
781 2 0.0470663 0.15133 0.572128
305 1 0.761741 0.183326 0.650213
271 1 0.019985 0.984197 0.666213
850 2 0.0055544 0.981818 0.621112
349 1 0.0893685 0.424696 0.589659
817 2 0.995823 0.259841 0.638374
292 1 0.228141 0.468466 0.616305
832 2 0.27654 0.327133 0.606733
268 1 0.416994 0.261585 0.596264
787 2 0.288629 0.191863 0.654218
319 1 0.533296 0.397483 0.631704
834 2 0.389245 0.308462 0.633418
794 2 0.587313 0.369999 0.582288
773 2 0.779578 0.448835 0.661527
313 1 0.749152 0.475106 0.62464
365 1 0.675269 0.350105 0.649184
331 1 0.94523 0.402306 0.610274
811 2 0.0137344 0.561995 0.59586
845 2 0.737551 0.47661 0.581441
816 2 0.841933 0.338001 0.637308
341 1 0.23433 0.607882 0.590373
342 1 0.437893 0.490138 0.646405
328 1 0.357898 0.579948 0.622038
814 2 0.147764 0.693773 0.623288
253 1 0.412122 0.706492 0.602307
768 2 0.529358 0.645838 0.626572
818 2 0.518384 0.808775 0.616259
317 1 0.422969 0.711622 0.65179
303 1 0.623241 0.502108 0.650934
325 1 0.698818 0.685333 0.628457
288 1 0.559375 0.668154 0.571701
795 2 0.993624 0.701477 0.635522
813 2 0.796553 0.595305 0.659598
825 2 0.830467 0.650292 0.615721
283 1 0.258902 0.752252 0.589894
800 2 0.0816692 0.806772 0.589581
785 2 0.931461 0.791221 0.552869
822 2 0.0781484 0.853752 0.625607
326 1 0.454064 0.873397 0.643954
842 2 0.368076 0.856288 0.608212
368 1 0.240897 0.820554 0.626069
826 2 0.70782 0.872612 0.660664
777 2 0.536949 0.812703 0.576803
324 1 0.631869 0.921493 0.609913
808 2 0.77437 0.954713 0.593015
374 1 0.605563 0.113161 0.607726
281 1 0.96628 0.00956623 0.575771
843 2 0.775836 0.837917 0.625917
865 2 0.926258 0.868346 0.609155
810 2 0.933884 0.0932084 0.650399
347 1 0.174326 0.0660441 0.646085
332 1 0.997823 0.0938381 0.686345
829 2 0.177151 0.155483 0.690283
820 2 0.230506 0.980642 0.700376
276 1 0.460177 0.937697 0.678749
833 2 0.347731 0.0832637 0.679991
827 2 0.551568 0.0791236 0.680657
803 2 0.572634 0.989729 0.644003
301 1 0.744131 0.0610947 0.61948
329 1 0.632062 0.141161 0.723904
846 2 0.838094 0.138375 0.680282
304 1 0.704394 0.0501332 0.662714
849 2 0.850502 0.976926 0.641097
358 1 0.697291 0.896516 0.703278
357 1 0.08374 0.500416 0.630285
812 2 0.181836 0.479917 0.666842
807 2 0.148888 0.236463 0.657041
861 2 0.996322 0.393853 0.657098
377 1 0.991949 0.220703 0.675108
782 2 0.236319 0.346963 0.646908
333 1 0.457576 0.20594 0.6635
323 1 0.309788 0.246237 0.688415
837 2 0.537131 0.376188 0.71267
364 1 0.502838 0.477275 0.685292
330 1 0.570203 0.252954 0.693269
339 1 0.675131 0.371983 0.68937
376 1 0.601049 0.175477 0.650802
338 1 0.43319 0.343479 0.676595
840 2 0.926586 0.543894 0.633578
871 2 0.86472 0.318303 0.677863
801 2 0.250419 0.667854 0.651668
387 1 0.204066 0.595761 0.695666
891 2 0.0697841 0.59133 0.668375
862 2 0.347933 0.564432 0.671779
867 2 0.233414 0.790357 0.678253
847 2 0.525489 0.633826 0.667909
340 1 0.678277 0.541571 0.688936
844 2 0.637109 0.497826 0.725186
343 1 0.674021 0.671187 0.669498
848 2 0.898498 0.512041 0.685718
838 2 0.804456 0.677473 0.693889
345 1 0.9546 0.415449 0.707452
875 2 0.932796 0.678816 0.711469
821 2 0.150828 0.90181 0.658225
815 2 0.10002 0.756855 0.663038
841 2 0.157878 0.843245 0.709437
855 2 0.996622 0.825544 0.686889
836 2 0.103331 0.71199 0.708099
396 1 0.0735564 0.962049 0.701209
252 1 0.16764 0.975947 0.608662
872 2 0.384028 0.963938 0.708711
346 1 0.306645 0.929419 0.659205
874 2 0.379733 0.804937 0.696636
839 2 0.808389 0.737347 0.653026
819 2 0.541413 0.820188 0.671174
316 1 0.559515 0.977945 0.711763
873 2 0.651632 0.742104 0.703611
860 2 0.947049 0.675515 0.671145
355 1 0.947046 0.856922 0.646587
423 1 0.850972 0.838962 0.688844
857 2 0.234169 0.440796 0.722934
876 2 0.184852 0.267376 0.724259
806 2 0.119505 0.338399 0.78508
805 2 0.119997 0.0913212 0.719283
881 2 0.203168 0.989761 0.753936
786 2 0.316926 0.0924612 0.719155
854 2 0.348301 0.13876 0.756756
353 1 0.470967 0.103713 0.730593
359 1 0.396755 0.440987 0.715426
334 1 0.622307 0.946404 0.749875
389 1 0.698524 0.0508209 0.776746
869 2 0.751803 0.0493267 0.725242
895 2 0.717141 0.943692 0.818705
853 2 0.808555 0.204069 0.719283
864 2 0.840737 0.982598 0.685576
352 1 0.890302 0.0486466 0.720115
416 1 0.124654 0.311659 0.69138
828 2 0.211697 0.486189 0.759949
361 1 0.0906133 0.39263 0.73822
851 2 0.286334 0.407796 0.682661
393 1 0.232097 0.298966 0.764233
408 1 0.369979 0.513036 0.757042
835 2 0.423579 0.225918 0.715226
307 1 0.462207 0.330232 0.750652
360 1 0.493299 0.622454 0.731593
889 2 0.53165 0.461187 0.749988
414 1 0.600509 0.279074 0.751692
390 1 0.709867 0.235766 0.681934
863 2 0.986879 0.200446 0.712521
859 2 0.770249 0.376253 0.72547
386 1 0.0035543 0.568451 0.729429
930 2 0.791632 0.324033 0.758519
362 1 0.200297 0.60466 0.736346
831 2 0.27144 0.746009 0.715699
312 1 0.087956 0.614347 0.761443
318 1 0.402034 0.746983 0.730558
400 1 0.48202 0.664129 0.768988
373 1 0.348757 0.608421 0.710754
370 1 0.804795 0.535574 0.716085
893 2 0.787078 0.527785 0.760139
898 2 0.71415 0.645403 0.727999
404 1 0.769893 0.903025 0.736382
424 1 0.0928948 0.455488 0.699157
473 1 0.893609 0.646534 0.750295
344 1 0.0289086 0.742331 0.777084
398 1 0.988839 0.759594 0.738738
896 2 0.144772 0.798444 0.746482
367 1 0.310046 0.645731 0.758891
371 1 0.295381 0.883836 0.730326
886 2 0.448487 0.952645 0.747697
430 1 0.506827 0.811313 0.762304
897 2 0.327384 0.813075 0.766191
327 1 0.52486 0.829618 0.721414
909 2 0.659744 0.774922 0.753038
900 2 0.512301 0.708472 0.702638
356 1 0.900291 0.944049 0.754843
354 1 0.781287 0.918382 0.783145
379 1 0.929856 0.880892 0.721278
406 1 0.0155365 0.899547 0.78541
899 2 0.869219 0.79129 0.763681
830 2 0.18065 0.15913 0.751477
910 2 0.229286 0.287993 0.813421
384 1 0.996654 0.101221 0.748072
413 1 0.0751348 0.099445 0.781169
412 1 0.245211 0.0957902 0.800033
852 2 0.309649 0.953155 0.782157
882 2 0.509072 0.0200664 0.783036
369 1 0.347967 0.240011 0.790248
941 2 0.441637 0.120442 0.807522
382 1 0.55933 0.0200232 0.818381
924 2 0.487116 0.159849 0.76976
460 1 0.732304 0.31987 0.795803
920 2 0.686033 0.115984 0.818541
880 2 0.935935 0.0544491 0.784699
877 2 0.0602845 0.938525 0.748727
879 2 0.82966 0.131484 0.760177
922 2 0.826296 0.160117 0.798075
990 2 0.939458 0.215323 0.772815
932 2 0.00893476 0.2684 0.802924
363 1 0.187398 0.459039 0.803436
443 1 0.38857 0.414668 0.786934
429 1 0.492338 0.228597 0.827164
884 2 0.497756 0.288728 0.788805
887 2 0.541999 0.536674 0.782882
391 1 0.627736 0.429964 0.808565
385 1 0.950434 0.302853 0.744492
381 1 0.811116 0.447838 0.7939
858 2 0.281989 0.60171 0.800911
441 1 0.0581911 0.489753 0.779102
497 1 0.957565 0.609632 0.848203
913 2 0.163449 0.652458 0.835633
917 2 0.399505 0.748787 0.8052
943 2 0.336529 0.679684 0.838785
933 2 0.589282 0.613203 0.830199
375 1 0.630819 0.642141 0.763055
410 1 0.936449 0.467614 0.751231
866 2 0.478949 0.724951 0.835514
449 1 0.673343 0.419424 0.76671
870 2 0.683381 0.726482 0.837525
885 2 0.92998 0.795976 0.805366
422 1 0.701265 0.569763 0.794889
411 1 0.895507 0.637698 0.792247
942 2 0.24942 0.851768 0.814708
392 1 0.162483 0.861688 0.779805
401 1 0.207532 0.726472 0.791662
916 2 0.12754 0.984673 0.804951
476 1 0.280475 0.996705 0.830969
383 1 0.416033 0.90961 0.809292
923 2 0.546038 0.793857 0.872799
397 1 0.597606 0.882439 0.789568
337 1 0.571087 0.718151 0.799845
919 2 0.567778 0.857164 0.828285
856 2 0.805724 0.661226 0.821512
425 1 0.867508 0.0290162 0.824548
972 2 0.745354 0.76378 0.788534
378 1 0.117941 0.19398 0.82988
921 2 0.0165256 0.0715466 0.823049
388 1 0.232529 0.135353 0.85453
949 2 0.583204 0.186782 0.856919
380 1 0.410027 0.0723054 0.842737
405 1 0.702478 0.285506 0.831668
481 1 0.526815 0.961852 0.859357
975 2 0.66842 0.334293 0.87036
499 1 0.960827 0.111356 0.869715
888 2 0.901693 0.215523 0.893611
976 2 0.815176 0.20284 0.843673
431 1 0.105418 0.350131 0.836853
426 1 0.107296 0.412594 0.881143
901 2 0.313053 0.530473 0.834809
878 2 0.159909 0.269298 0.86184
892 2 0.625433 0.204893 0.787108
984 2 0.381504 0.345012 0.821012
445 1 0.421922 0.4288 0.858175
418 1 0.297311 0.372365 0.869264
440 1 0.365094 0.238594 0.855966
883 2 0.811634 0.513112 0.832081
935 2 0.553814 0.410933 0.8405
960 2 0.517489 0.47226 0.885898
462 1 0.498147 0.314215 0.872791
351 1 0.913915 0.363393 0.778089
964 2 0.871151 0.310728 0.814772
417 1 0.802743 0.376647 0.852149
944 2 0.95514 0.45081 0.808784
966 2 0.818898 0.397821 0.890208
940 2 0.0839866 0.514296 0.848296
937 2 0.213489 0.56103 0.879935
407 1 0.110229 0.679111 0.889974
912 2 0.0371761 0.605649 0.814465
22 1 0.0607868 0.742498 0.859003
894 2 0.376874 0.722447 0.885161
939 2 0.478658 0.581865 0.859267
925 2 0.418915 0.923516 0.884711
394 1 0.677115 0.493815 0.855218
915 2 0.480236 0.52444 0.821429
931 2 0.657497 0.615367 0.875609
435 1 0.92979 0.450264 0.855854
902 2 0.931602 0.650086 0.88281
890 2 0.794161 0.539533 0.871648
395 1 0.81233 0.689795 0.905534
911 2 0.0748122 0.774796 0.814517
452 1 0.191541 0.814549 0.851085
968 2 0.164652 0.90905 0.881434
428 1 0.120119 0.951524 0.844081
434 1 0.379101 0.863674 0.853638
934 2 0.26286 0.171118 0.891834
868 2 0.674043 0.86593 0.853861
904 2 0.617766 0.0841638 0.888528
914 2 0.501771 0.795864 0.914598
399 1 0.675801 0.0404893 0.855519
403 1 0.27342 0.0137938 0.880165
459 1 0.724488 0.974862 0.900262
336 1 0.791426 0.692081 0.864088
420 1 0.976879 0.89895 0.828413
421 1 0.802861 0.827531 0.823818
451 1 0.818674 0.933311 0.8545
457 1 0.0988069 0.0550477 0.865899
483 1 0.178409 0.281522 0.899012
995 2 0.14588 0.0454284 0.899698
996 2 0.10884 0.177975 0.932734
955 2 0.96856 0.236229 0.841333
928 2 0.457133 0.098028 0.879453
2 1 0.592015 0.202879 0.911803
427 1 0.528343 0.0210713 0.929579
446 1 0.265017 0.0935575 0.929852
953 2 0.755841 0.138992 0.87501
409 1 0.738416 0.278171 0.90014
20 1 0.535607 0.899315 0.955799
973 2 0.569037 0.220132 0.949634
479 1 0.91159 0.114372 0.935588
954 2 0.0525768 0.227039 0.887159
480 1 0.825461 0.254909 0.931975
75 1 0.877288 0.0347299 0.892709
436 1 0.255337 0.43295 0.907806
25 1 0.0942321 0.377611 0.931371
402 1 0.0102731 0.527238 0.896603