ITEM: TIMESTEP
6900
ITEM: NUMBER OF ATOMS
1000
ITEM: BOX BOUNDS pp pp pp
0.0000000000000000e+00 6.2996052494743662e+00
0.0000000000000000e+00 6.2996052494743662e+00
0.0000000000000000e+00 2.5198420997897465e+01
ITEM: ATOMS id type xs ys zs
11 1 0.177544 0.11563 0.0186522
80 1 0.0730476 0.0604809 0.0524952
985 2 0.248709 0.16789 0.0552764
486 1 0.0621013 0.202473 0.00500525
489 1 0.434042 0.185559 0.0372062
482 1 0.348293 0.0440971 0.0240067
522 2 0.611062 0.0471084 0.00344349
63 1 0.496051 0.334509 0.0489933
512 2 0.615804 0.109335 0.0401628
58 1 0.73911 0.14993 0.991013
487 1 0.880491 0.247909 0.058793
574 2 0.804873 0.278031 0.000574538
573 2 0.766391 0.16481 0.0578208
534 2 0.843067 0.145637 0.0201205
51 1 0.0330202 0.394884 0.00749051
977 2 0.94167 0.294285 0.0181187
511 2 0.955908 0.482184 0.059623
545 2 0.121671 0.536116 0.0400694
61 1 0.054913 0.357638 0.0419151
957 2 0.354725 0.306902 0.0336805
510 2 0.221263 0.425013 0.00360096
963 2 0.201268 0.267286 0.0216147
999 2 0.512712 0.357701 0.997278
980 2 0.54355 0.204857 0.00927624
508 2 0.741664 0.468741 0.00488962
33 1 0.495416 0.537948 0.0519684
529 2 0.698225 0.249041 0.0291063
485 1 0.801109 0.521373 0.0519913
981 2 0.00310371 0.323116 0.0783584
15 1 0.927048 0.666209 0.0577867
70 1 0.0646677 0.630195 0.0733421
520 2 0.0541228 0.703046 0.0356156
488 1 0.118995 0.661539 0.00298292
43 1 0.418771 0.602521 0.0257427
18 1 0.296906 0.54925 0.0588278
3 1 0.459509 0.74 0.010507
962 2 0.258353 0.606631 0.0122303
516 2 0.582351 0.697243 0.0560031
514 2 0.491145 0.506086 0.00276619
24 1 0.606243 0.619476 0.00880587
524 2 0.643468 0.559486 0.0473029
507 2 0.94371 0.830294 0.0168052
961 2 0.991077 0.566071 0.020331
17 1 0.684552 0.751016 0.0148949
477 1 0.992284 0.0447168 0.0134552
1 1 0.0175563 0.896322 0.0429917
982 2 0.126397 0.975053 0.0131438
967 2 0.147293 0.809526 0.0200834
951 2 0.314241 0.880784 0.0144459
525 2 0.387475 0.678563 0.0675549
8 1 0.490718 0.953109 0.0168629
997 2 0.305358 0.719122 0.0335082
504 2 0.722111 0.00379404 0.0340381
549 2 0.751961 0.662082 0.0497486
498 1 0.602193 0.860001 0.0394673
75 1 0.802998 0.0212465 0.972802
100 1 0.92088 0.812172 0.0678876
5 1 0.892506 0.937853 0.996151
575 2 0.873361 0.951991 0.036162
95 1 0.809541 0.822412 0.0405767
35 1 0.10504 0.168984 0.0965142
7 1 0.332107 0.310338 0.0831899
555 2 0.252157 0.136108 0.0937391
13 1 0.24609 0.960421 0.0398673
36 1 0.358073 0.94699 0.067455
52 1 0.364491 0.0947175 0.0736224
56 1 0.48532 0.222906 0.0816417
12 1 0.528145 0.975121 0.053567
526 2 0.66469 0.146182 0.0899587
503 2 0.765347 0.0371774 0.0990778
73 1 0.629081 0.249709 0.0610991
506 2 0.770412 0.364873 0.054692
528 2 0.0712683 0.225024 0.0547007
34 1 0.936569 0.228363 0.101045
533 2 0.846984 0.343868 0.0931249
78 1 0.787958 0.219611 0.107387
40 1 0.999541 0.507162 0.0996521
532 2 0.183371 0.301684 0.0772822
89 1 0.0891122 0.375579 0.109934
86 1 0.171867 0.515061 0.0785429
538 2 0.541916 0.428578 0.0785863
49 1 0.368353 0.460204 0.0289909
517 2 0.232863 0.406579 0.0530844
65 1 0.392724 0.450416 0.066208
556 2 0.455458 0.389861 0.105812
527 2 0.616346 0.292765 0.103364
558 2 0.62214 0.381694 0.0278074
998 2 0.728313 0.5753 0.124444
509 2 0.851744 0.496661 0.0971225
50 1 0.695774 0.460756 0.0864325
59 1 0.0140936 0.219065 0.131772
21 1 0.221812 0.672062 0.0733119
39 1 0.20549 0.608453 0.114908
41 1 0.137095 0.478883 0.139141
42 1 0.362953 0.553777 0.0959492
550 2 0.500184 0.57872 0.0909487
542 2 0.451698 0.697148 0.110901
23 1 0.587479 0.765009 0.0999352
523 2 0.654498 0.615352 0.0892934
547 2 0.565978 0.494676 0.117227
14 1 0.888313 0.420096 0.130339
559 2 0.795225 0.687087 0.0900846
10 1 0.948266 0.652014 0.0983758
565 2 0.916474 0.947842 0.0803167
513 2 0.912792 0.767198 0.124414
530 2 0.0594184 0.883853 0.0859755
540 2 0.0591865 0.761802 0.110755
26 1 0.0876375 0.0572593 0.130754
502 2 0.110249 0.796454 0.0588408
37 1 0.248915 0.821891 0.0639957
546 2 0.223815 0.775559 0.100602
97 1 0.30667 0.865185 0.135351
9 1 0.45527 0.788541 0.0478609
28 1 0.502919 0.0514756 0.0863123
27 1 0.661895 0.00147696 0.0708006
548 2 0.691269 0.829176 0.0693887
48 1 0.52909 0.888433 0.0888557
69 1 0.956481 0.917365 0.120728
71 1 0.904053 0.0906866 0.0633329
96 1 0.821264 0.845555 0.100482
598 2 0.20088 0.242604 0.120038
101 1 0.203703 0.0170304 0.0799679
81 1 0.123345 0.0513519 0.180878
551 2 0.403085 0.165809 0.106357
57 1 0.391451 0.839773 0.0997425
82 1 0.323279 0.133482 0.14963
83 1 0.586507 0.982155 0.129392
92 1 0.812371 0.297297 0.150991
53 1 0.556519 0.117056 0.152271
583 2 0.552716 0.278406 0.153563
577 2 0.666791 0.986283 0.1621
44 1 0.00323298 0.05607 0.0956293
576 2 0.99627 0.0783206 0.165693
554 2 0.855218 0.12673 0.129765
60 1 0.880537 0.211579 0.177298
600 2 0.783127 0.971799 0.137197
535 2 0.110093 0.442542 0.179002
85 1 0.252496 0.393453 0.108567
585 2 0.020494 0.317647 0.190764
77 1 0.328246 0.294318 0.124874
552 2 0.556114 0.141665 0.114855
581 2 0.222367 0.298116 0.155073
87 1 0.391015 0.294211 0.15668
561 2 0.507049 0.435509 0.15159
62 1 0.655004 0.382595 0.165007
531 2 0.697529 0.404476 0.127664
99 1 0.0717488 0.336962 0.152087
54 1 0.849821 0.380564 0.188126
564 2 0.309738 0.674167 0.140212
64 1 0.028797 0.616699 0.131998
590 2 0.303437 0.42687 0.145624
66 1 0.983668 0.630099 0.170831
595 2 0.162663 0.615546 0.159586
541 2 0.181481 0.743652 0.136628
38 1 0.408161 0.539917 0.129301
570 2 0.365175 0.619107 0.175186
519 2 0.777926 0.453922 0.158906
562 2 0.658526 0.548582 0.152663
537 2 0.559367 0.696811 0.138621
543 2 0.725576 0.74165 0.133516
589 2 0.7047 0.571409 0.19572
553 2 0.961635 0.438909 0.164956
88 1 0.862866 0.596312 0.142151
90 1 0.814764 0.676131 0.173548
560 2 0.145177 0.925438 0.118466
76 1 0.00732454 0.172991 0.196152
566 2 0.124956 0.901727 0.155839
120 1 0.0807111 0.760164 0.191519
98 1 0.401066 0.98407 0.109289
571 2 0.491758 0.857482 0.138807
567 2 0.272897 0.963206 0.166313
597 2 0.559489 0.809238 0.192955
93 1 0.426224 0.983956 0.152889
572 2 0.648994 0.849201 0.158487
74 1 0.689817 0.919778 0.104257
55 1 0.91929 0.96319 0.179204
539 2 0.829387 0.816638 0.156851
68 1 0.807881 0.0634216 0.170443
587 2 0.00348394 0.767431 0.15746
580 2 0.146319 0.182816 0.154869
102 1 0.30604 0.130204 0.186336
602 2 0.154476 0.109591 0.210652
128 1 0.452734 0.175543 0.179504
603 2 0.283277 0.990002 0.211476
107 1 0.22527 0.269404 0.232277
157 1 0.41811 0.102224 0.219484
125 1 0.693156 0.190573 0.149448
134 1 0.586395 0.110404 0.228558
79 1 0.721773 0.250915 0.18259
605 2 0.894621 0.051798 0.211484
579 2 0.781412 0.15076 0.213579
604 2 0.912038 0.275926 0.214777
110 1 0.00628298 0.151075 0.235855
582 2 0.141738 0.491388 0.222329
601 2 0.168366 0.248153 0.196919
610 2 0.311127 0.32365 0.186962
150 1 0.0642226 0.296269 0.229194
104 1 0.958338 0.517235 0.241735
611 2 0.373953 0.259205 0.217815
607 2 0.258442 0.430323 0.210967
112 1 0.541415 0.311776 0.193135
557 2 0.701521 0.407644 0.19707
635 2 0.676677 0.547397 0.242016
632 2 0.419532 0.416896 0.194088
634 2 0.612484 0.408647 0.234527
84 1 0.994675 0.450322 0.206222
609 2 0.773195 0.401649 0.229225
588 2 0.0916316 0.805656 0.233673
122 1 0.241006 0.68385 0.194636
111 1 0.0950472 0.580674 0.194637
141 1 0.245289 0.598973 0.229012
91 1 0.253598 0.511976 0.179637
116 1 0.522999 0.587467 0.173214
72 1 0.383994 0.7065 0.216445
608 2 0.401671 0.546298 0.214213
586 2 0.578986 0.488197 0.197255
139 1 0.666218 0.676792 0.172442
592 2 0.701608 0.696007 0.219173
67 1 0.562851 0.648625 0.208765
568 2 0.653243 0.850272 0.232165
94 1 0.873071 0.539397 0.19051
563 2 0.920419 0.787925 0.193873
639 2 0.829845 0.583731 0.232004
615 2 0.975816 0.661001 0.218266
594 2 0.852881 0.779472 0.233427
596 2 0.316452 0.783302 0.172371
117 1 0.132939 0.966456 0.234866
105 1 0.0466468 0.896046 0.200399
108 1 0.198988 0.840161 0.198799
578 2 0.453174 0.0274897 0.189544
591 2 0.233385 0.758068 0.235133
622 2 0.391362 0.886962 0.192483
599 2 0.635631 0.129406 0.190932
536 2 0.594285 0.970563 0.199658
593 2 0.490387 0.810349 0.234046
144 1 0.746133 0.988789 0.213061
113 1 0.732554 0.846702 0.197796
569 2 0.971843 0.902292 0.232781
124 1 0.867748 0.998995 0.257191
650 2 0.153618 0.223575 0.267087
151 1 0.0442648 0.0914965 0.271563
626 2 0.265316 0.123172 0.231914
627 2 0.413875 0.111493 0.310825
133 1 0.405181 0.24785 0.29419
158 1 0.25445 0.324721 0.296085
153 1 0.368476 0.0799397 0.264821
647 2 0.525601 0.155187 0.263614
131 1 0.680405 0.191841 0.275421
638 2 0.510838 0.24149 0.232247
119 1 0.656841 0.340185 0.294055
109 1 0.678048 0.245623 0.233738
623 2 0.847475 0.200083 0.246582
172 1 0.968182 0.232895 0.270893
175 1 0.823271 0.0967617 0.287701
106 1 0.0943704 0.378361 0.295641
140 1 0.0635638 0.390033 0.258871
606 2 0.221851 0.388874 0.258452
637 2 0.360699 0.446429 0.280853
136 1 0.215543 0.486814 0.298886
137 1 0.380643 0.271547 0.256862
132 1 0.305495 0.428491 0.329394
142 1 0.411931 0.400217 0.236666
135 1 0.730394 0.448105 0.271767
619 2 0.574174 0.471608 0.27687
138 1 0.538378 0.323967 0.268599
671 2 0.895579 0.379058 0.260355
640 2 0.791399 0.286748 0.274806
584 2 0.805909 0.573801 0.285727
145 1 0.948763 0.454693 0.295753
616 2 0.19059 0.671725 0.271872
636 2 0.149501 0.532367 0.260215
146 1 0.0951463 0.655262 0.240797
641 2 0.133747 0.659324 0.310408
613 2 0.363125 0.748927 0.253853
617 2 0.329908 0.566207 0.262556
642 2 0.316549 0.788368 0.288833
143 1 0.398608 0.535346 0.317268
612 2 0.287109 0.622595 0.297412
148 1 0.459815 0.656122 0.292389
123 1 0.704605 0.707987 0.256775
665 2 0.610895 0.646446 0.284557
114 1 0.503011 0.53529 0.24396
624 2 0.553054 0.69031 0.252837
115 1 0.910521 0.664557 0.268222
618 2 0.883291 0.573879 0.320455
166 1 0.0299906 0.575883 0.285347
130 1 0.776411 0.785227 0.29169
121 1 0.0614988 0.740949 0.272218
152 1 0.0577483 0.8912 0.27916
672 2 0.191762 0.848705 0.263993
147 1 0.29723 0.944933 0.28964
667 2 0.216779 0.0388997 0.267008
163 1 0.307724 0.907279 0.237908
127 1 0.467193 0.947711 0.227808
630 2 0.578767 0.977813 0.284512
103 1 0.63575 0.986173 0.245528
118 1 0.461618 0.914841 0.264786
670 2 0.640992 0.844186 0.274048
614 2 0.770644 0.87763 0.254162
160 1 0.746074 0.0810359 0.250104
621 2 0.949366 0.985887 0.294754
155 1 0.753413 0.931435 0.298992
625 2 0.921923 0.832761 0.268262
177 1 0.266235 0.156115 0.290837
182 1 0.00935334 0.130612 0.340248
651 2 0.15144 0.0886486 0.334394
188 1 0.474046 0.0982229 0.369888
653 2 0.550389 0.192187 0.299151
655 2 0.529181 0.0595829 0.331435
165 1 0.550336 0.224887 0.368726
164 1 0.666899 0.986085 0.342558
652 2 0.923129 0.315176 0.307455
126 1 0.767284 0.238267 0.320785
675 2 0.976639 0.161341 0.306827
197 1 0.140574 0.200518 0.30665
657 2 0.185949 0.236114 0.361231
187 1 0.11831 0.333518 0.338197
662 2 0.287787 0.227631 0.330253
633 2 0.44613 0.354423 0.347804
190 1 0.456215 0.211746 0.337428
631 2 0.194976 0.439219 0.359258
678 2 0.36938 0.227741 0.374946
628 2 0.614868 0.21045 0.332712
169 1 0.657423 0.529176 0.311114
185 1 0.739966 0.355819 0.352687
643 2 0.475263 0.374456 0.310034
159 1 0.60849 0.361397 0.329154
680 2 0.869078 0.143792 0.344718
156 1 0.968396 0.419137 0.341233
161 1 0.771855 0.421355 0.312606
167 1 0.215969 0.564045 0.330757
661 2 0.0703538 0.514586 0.317363
168 1 0.34941 0.703533 0.329153
692 2 0.487805 0.502597 0.351824
644 2 0.745253 0.661042 0.321931
170 1 0.522825 0.629204 0.329276
664 2 0.631454 0.477087 0.35002
195 1 0.622392 0.671968 0.370229
645 2 0.998148 0.548029 0.356638
192 1 0.0602986 0.391348 0.377112
620 2 0.977536 0.707078 0.30228
666 2 0.830581 0.493951 0.35019
649 2 0.993835 0.84506 0.314029
696 2 0.202779 0.736894 0.340517
648 2 0.144609 0.808469 0.301756
171 1 0.0351692 0.735181 0.335762
201 1 0.128162 0.979755 0.305637
198 1 0.504559 0.747439 0.355439
676 2 0.458754 0.81168 0.296059
183 1 0.274745 0.0275081 0.320795
697 2 0.337878 0.840393 0.33292
129 1 0.632168 0.775977 0.310782
673 2 0.455282 0.950995 0.307827
149 1 0.555793 0.883869 0.332961
629 2 0.843156 0.840684 0.324089
176 1 0.00168292 0.98198 0.339618
646 2 0.847442 0.0287243 0.320204
180 1 0.654945 0.0763313 0.304927
674 2 0.710022 0.798506 0.340163
677 2 0.927739 0.141432 0.378881
681 2 0.994149 0.117228 0.417805
212 1 0.0863244 0.106063 0.372647
699 2 0.945746 0.287336 0.351178
231 1 0.182735 0.901112 0.336975
706 2 0.304595 0.0915117 0.358891
658 2 0.353712 0.0436111 0.3909
682 2 0.227659 0.124044 0.393904
707 2 0.386289 0.163884 0.412053
207 1 0.183858 0.973485 0.388361
232 1 0.305096 0.265441 0.438401
179 1 0.635142 0.112486 0.39419
184 1 0.686685 0.28932 0.408458
204 1 0.651971 0.0516632 0.433854
660 2 0.820865 0.0821417 0.406145
654 2 0.811225 0.00946895 0.362512
205 1 0.922104 0.957404 0.413826
687 2 0.0523659 0.245277 0.393041
710 2 0.932772 0.389857 0.402741
686 2 0.207782 0.503567 0.399021
688 2 0.274552 0.296798 0.397196
217 1 0.339525 0.420025 0.381672
711 2 0.222979 0.422621 0.434608
718 2 0.669008 0.529746 0.423287
679 2 0.712367 0.193277 0.360959
683 2 0.472261 0.320426 0.391668
189 1 0.626495 0.354691 0.373823
656 2 0.840664 0.275656 0.380092
211 1 0.000143507 0.295166 0.430077
690 2 0.838984 0.276705 0.419698
691 2 0.135758 0.598555 0.360197
222 1 0.085525 0.713407 0.416148
721 2 0.328792 0.628936 0.406593
162 1 0.298037 0.576619 0.366792
663 2 0.579635 0.516728 0.391326
173 1 0.461837 0.632025 0.376841
218 1 0.479793 0.646919 0.430108
193 1 0.500793 0.756254 0.404086
669 2 0.769692 0.42534 0.384785
216 1 0.971077 0.715391 0.371912
186 1 0.89774 0.544403 0.386807
191 1 0.838561 0.66159 0.349976
199 1 0.78582 0.728864 0.380734
220 1 0.0663384 0.569504 0.395827
247 1 0.0835679 0.856395 0.371926
203 1 0.196858 0.68967 0.386452
720 2 0.136726 0.858794 0.41232
178 1 0.310945 0.907528 0.364755
223 1 0.35312 0.757726 0.373972
154 1 0.460388 0.92844 0.355915
208 1 0.43526 0.0305533 0.419652
698 2 0.42856 0.894954 0.391425
174 1 0.608102 0.875254 0.368157
703 2 0.558898 0.985764 0.393523
700 2 0.950141 0.988918 0.376411
196 1 0.883425 0.857489 0.362921
221 1 0.978947 0.817348 0.401974
194 1 0.674721 0.804374 0.399255
724 2 0.746322 0.884088 0.373309
236 1 0.148597 0.140349 0.429079
235 1 0.0272945 0.107473 0.455722
726 2 0.0605069 0.115231 0.493177
233 1 0.292832 0.0667405 0.431516
257 1 0.146365 0.0138373 0.462627
214 1 0.396437 0.13571 0.45077
729 2 0.545675 0.0910664 0.466902
704 2 0.712056 0.0505054 0.471425
229 1 0.573133 0.918408 0.426217
749 2 0.730641 0.947308 0.417091
181 1 0.0584528 0.246743 0.461638
209 1 0.890145 0.179127 0.445466
230 1 0.785618 0.192189 0.481713
705 2 0.846664 0.0323438 0.444448
250 1 0.795298 0.0301228 0.507806
685 2 0.977441 0.377393 0.482328
237 1 0.0551752 0.442606 0.420489
736 2 0.157961 0.29603 0.42158
272 1 0.101617 0.46379 0.460166
213 1 0.3734 0.389441 0.416799
238 1 0.46467 0.313721 0.440585
242 1 0.344665 0.404345 0.462416
713 2 0.396675 0.594577 0.47096
689 2 0.572301 0.385427 0.422533
684 2 0.547451 0.210502 0.413169
709 2 0.739307 0.38107 0.433461
239 1 0.483881 0.467316 0.456427
739 2 0.598553 0.449282 0.481087
659 2 0.72329 0.176094 0.445155
215 1 0.953193 0.461878 0.448975
210 1 0.874244 0.316957 0.461696
245 1 0.874514 0.494848 0.487231
695 2 0.160552 0.592455 0.428609
246 1 0.0797731 0.678679 0.455007
241 1 0.00876155 0.549655 0.482793
266 1 0.26986 0.649611 0.448895
716 2 0.329875 0.526001 0.43968
717 2 0.448743 0.518953 0.40945
723 2 0.640183 0.659117 0.407002
694 2 0.582862 0.594133 0.454605
244 1 0.736717 0.556895 0.368604
737 2 0.604992 0.709879 0.476378
719 2 0.68941 0.76056 0.436762
693 2 0.845817 0.518545 0.422396
200 1 0.953121 0.664688 0.410475
240 1 0.722495 0.620518 0.44873
296 1 0.923029 0.593568 0.454074
275 1 0.788302 0.666363 0.417901
202 1 0.288071 0.916641 0.411946
725 2 0.118959 0.997024 0.424271
746 2 0.142742 0.827615 0.449988
708 2 0.393683 0.830568 0.427656
722 2 0.252756 0.779533 0.426282
243 1 0.403118 0.742797 0.458479
702 2 0.292118 0.903776 0.451428
748 2 0.449514 0.938656 0.457154
668 2 0.548009 0.804849 0.452387
224 1 0.726977 0.923166 0.453269
206 1 0.00191979 0.92918 0.44635
225 1 0.840976 0.80605 0.414035
745 2 0.973371 0.780093 0.438887
735 2 0.214902 0.159982 0.465776
727 2 0.335967 0.0408284 0.477317
731 2 0.134005 0.0459354 0.528461
228 1 0.512791 0.0237223 0.498579
733 2 0.372322 0.193052 0.486148
753 2 0.516887 0.18914 0.504921
259 1 0.616099 0.288381 0.458227
309 1 0.41134 0.0921935 0.531687
264 1 0.658905 0.104077 0.506162
254 1 0.597072 0.91078 0.476378
778 2 0.623901 0.306254 0.499742
755 2 0.92748 0.00417289 0.482334
730 2 0.792155 0.000171925 0.547408
799 2 0.931942 0.0467718 0.525781
715 2 0.927167 0.232418 0.49303
261 1 0.181206 0.333749 0.466736
265 1 0.0715649 0.264943 0.505131
760 2 0.194924 0.182278 0.503025
712 2 0.241989 0.474693 0.48284
732 2 0.314476 0.331221 0.499094
763 2 0.363491 0.462513 0.528247
234 1 0.456503 0.310984 0.480945
742 2 0.231556 0.503195 0.52039
714 2 0.476719 0.487254 0.495388
734 2 0.727713 0.373657 0.471775
260 1 0.957271 0.311987 0.525141
744 2 0.779534 0.525773 0.519235
740 2 0.107061 0.450497 0.501128
761 2 0.99589 0.477833 0.52757
770 2 0.980412 0.688019 0.491553
767 2 0.0916613 0.620462 0.517904
262 1 0.180643 0.624996 0.487788
747 2 0.316155 0.634666 0.505046
219 1 0.662898 0.606733 0.542807
738 2 0.641213 0.589338 0.497007
774 2 0.746839 0.729521 0.511734
743 2 0.482343 0.622912 0.518691
299 1 0.814076 0.64182 0.477449
278 1 0.259936 0.887582 0.523054
267 1 0.126099 0.77705 0.4991
227 1 0.213551 0.936649 0.487867
741 2 0.270276 0.784428 0.48007
248 1 0.402749 0.748116 0.519866
772 2 0.568672 0.879078 0.51275
752 2 0.383486 0.933193 0.50504
255 1 0.576626 0.019445 0.531832
249 1 0.482965 0.787062 0.491061
779 2 0.59685 0.70871 0.51551
300 1 0.812121 0.803749 0.462357
701 2 0.951502 0.823067 0.478335
274 1 0.817237 0.673253 0.539835
226 1 0.864172 0.887972 0.523262
750 2 0.982686 0.787089 0.518592
251 1 0.0475527 0.925444 0.516723
757 2 0.288803 0.206656 0.537768
252 1 0.141838 0.0780721 0.570003
822 2 0.150865 0.920817 0.552469
751 2 0.278838 0.0439997 0.517763
288 1 0.413473 0.887603 0.545819
258 1 0.298403 0.00683721 0.553748
758 2 0.427989 0.224144 0.553321
333 1 0.375244 0.280961 0.598666
310 1 0.533137 0.117407 0.560125
754 2 0.673235 0.0154451 0.567981
314 1 0.672794 0.163452 0.544495
780 2 0.909733 0.13779 0.555841
281 1 0.912423 0.0412184 0.608186
796 2 0.0865477 0.99888 0.601728
759 2 0.802977 0.183975 0.522924
321 1 0.986172 0.143234 0.587106
762 2 0.176427 0.349454 0.523608
291 1 0.107746 0.231588 0.563686
292 1 0.197188 0.389992 0.562707
263 1 0.508605 0.468342 0.550029
788 2 0.362883 0.348472 0.549845
728 2 0.491489 0.350745 0.519164
284 1 0.705348 0.318304 0.532132
764 2 0.541292 0.293566 0.570029
789 2 0.817343 0.380471 0.583755
268 1 0.475166 0.412838 0.588397
270 1 0.832745 0.341705 0.503265
256 1 0.020203 0.185716 0.531551
765 2 0.0335964 0.35668 0.554321
790 2 0.84046 0.399072 0.543658
298 1 0.029274 0.650278 0.577737
287 1 0.0839728 0.526341 0.560481
793 2 0.178685 0.738825 0.573803
795 2 0.0631243 0.55608 0.614751
293 1 0.193204 0.610047 0.546152
792 2 0.294251 0.521879 0.564267
253 1 0.357151 0.702949 0.559022
303 1 0.501162 0.771052 0.548514
269 1 0.634023 0.446278 0.524983
768 2 0.493862 0.621405 0.56062
769 2 0.660652 0.778558 0.559696
294 1 0.660774 0.432598 0.564908
773 2 0.557257 0.732611 0.583536
791 2 0.935795 0.492913 0.563908
297 1 0.80132 0.806013 0.563352
295 1 0.970108 0.619317 0.541761
794 2 0.78028 0.549474 0.56281
766 2 0.117856 0.7747 0.539124
771 2 0.0143779 0.991154 0.567395
798 2 0.200814 0.842556 0.600457
283 1 0.268555 0.848685 0.566844
273 1 0.267432 0.749059 0.530871
322 1 0.305611 0.6975 0.597071
823 2 0.541816 0.857483 0.598877
285 1 0.720101 0.880644 0.589695
308 1 0.547226 0.940634 0.565316
279 1 0.692069 0.910863 0.531064
271 1 0.0630115 0.858409 0.579231
775 2 0.950429 0.770768 0.557601
800 2 0.851145 0.942566 0.579838
277 1 0.243455 0.978831 0.593626
302 1 0.0588965 0.109003 0.626802
282 1 0.418397 0.00655855 0.570429
276 1 0.164156 0.169293 0.602632
803 2 0.224494 0.0549006 0.627577
783 2 0.566384 0.994357 0.615183
808 2 0.465156 0.146396 0.599806
304 1 0.621954 0.0370503 0.650822
307 1 0.316897 0.103295 0.59908
289 1 0.620777 0.17041 0.588615
804 2 0.640752 0.163599 0.627301
849 2 0.777153 0.072085 0.643136
280 1 0.915441 0.875028 0.61391
784 2 0.896033 0.179448 0.635625
756 2 0.269543 0.219414 0.575253
286 1 0.0655094 0.441773 0.59044
781 2 0.0322111 0.275802 0.598553
832 2 0.211276 0.316473 0.601212
782 2 0.417269 0.491614 0.627657
317 1 0.435751 0.632401 0.645693
833 2 0.259318 0.234475 0.626771
787 2 0.30575 0.435739 0.596779
290 1 0.752222 0.242115 0.570929
809 2 0.669804 0.324926 0.590826
834 2 0.582674 0.465827 0.619555
776 2 0.920118 0.288995 0.565229
785 2 0.850352 0.202796 0.596381
810 2 0.0581915 0.242938 0.639622
311 1 0.90871 0.327647 0.616634
817 2 0.176592 0.578792 0.592895
342 1 0.175687 0.688258 0.616592
347 1 0.289875 0.602642 0.632313
797 2 0.147286 0.55749 0.648754
316 1 0.468538 0.657261 0.681772
323 1 0.409793 0.574596 0.589638
818 2 0.447427 0.708396 0.609063
319 1 0.631074 0.607547 0.583904
338 1 0.571985 0.621214 0.620561
313 1 0.733156 0.493965 0.600959
813 2 0.722596 0.592958 0.631479
324 1 0.680374 0.758913 0.612711
814 2 0.951452 0.723628 0.60196
320 1 0.901736 0.510078 0.604498
815 2 0.0436448 0.680655 0.642186
327 1 0.226726 0.905492 0.643631
777 2 0.314275 0.814065 0.626185
819 2 0.451869 0.856379 0.631756
348 1 0.399462 0.817039 0.591104
329 1 0.388604 0.960236 0.610994
325 1 0.787939 0.855228 0.630619
824 2 0.741528 0.0586818 0.603744
350 1 0.615142 0.88025 0.648245
326 1 0.0742872 0.940497 0.636567
366 1 0.796397 0.649909 0.591164
821 2 0.0699604 0.808145 0.619081
349 1 0.853259 0.688047 0.628015
332 1 0.185295 0.0868627 0.66372
851 2 0.211689 0.180197 0.692766
829 2 0.181007 0.252963 0.662616
358 1 0.340266 0.151368 0.651332
335 1 0.460008 0.0589988 0.638461
835 2 0.494989 0.183082 0.663421
354 1 0.481399 0.0371351 0.728126
872 2 0.304737 0.0375897 0.686033
334 1 0.448793 0.0741531 0.692004
301 1 0.624824 0.0491656 0.689642
802 2 0.0180822 0.0646205 0.662154
376 1 0.782127 0.116909 0.701368
826 2 0.749014 0.25289 0.662992
305 1 0.88234 0.221693 0.673606
331 1 0.28707 0.411414 0.635602
312 1 0.371372 0.480151 0.670244
364 1 0.313523 0.343732 0.67142
786 2 0.31152 0.415183 0.709629
806 2 0.179466 0.428048 0.668092
801 2 0.0922548 0.414088 0.627334
807 2 0.428692 0.31045 0.644236
353 1 0.376194 0.209723 0.687688
339 1 0.516065 0.301401 0.610744
306 1 0.741474 0.337845 0.624031
330 1 0.596234 0.29771 0.649872
340 1 0.8097 0.33688 0.696015
365 1 0.652589 0.371752 0.681526
360 1 0.65105 0.231095 0.689082
840 2 0.867121 0.345909 0.653089
357 1 0.988617 0.337422 0.680906
812 2 0.209822 0.529807 0.70409
341 1 0.109189 0.635163 0.690931
318 1 0.449841 0.463818 0.702584
343 1 0.536363 0.740217 0.641786
862 2 0.287452 0.596623 0.673238
837 2 0.587196 0.515752 0.655564
838 2 0.362027 0.727525 0.706468
839 2 0.772545 0.551802 0.675646
344 1 0.809774 0.718529 0.698406
345 1 0.628781 0.63833 0.684564
315 1 0.813664 0.467456 0.635518
816 2 0.983519 0.505423 0.648588
811 2 0.898527 0.469999 0.680977
362 1 0.045274 0.478552 0.686884
860 2 0.921107 0.649896 0.66943
328 1 0.176125 0.746827 0.65035
836 2 0.991958 0.731992 0.694506
847 2 0.186852 0.768609 0.689189
372 1 0.379592 0.949038 0.650557
841 2 0.142487 0.931534 0.673236
842 2 0.352395 0.74784 0.669099
843 2 0.541349 0.797919 0.678702
827 2 0.360184 0.877674 0.692201
850 2 0.740581 0.988408 0.67144
374 1 0.505031 0.951707 0.668969
845 2 0.691702 0.729004 0.654896
375 1 0.694519 0.847339 0.682431
346 1 0.0315033 0.850491 0.663778
820 2 0.914424 0.968226 0.647321
846 2 0.909143 0.0470232 0.688863
825 2 0.859639 0.822297 0.671219
852 2 0.144706 0.122599 0.738263
377 1 0.339664 0.143401 0.720709
435 1 0.14801 0.244409 0.773992
882 2 0.425897 0.141004 0.755943
854 2 0.275801 0.0791634 0.766489
355 1 0.631577 0.95019 0.717146
855 2 0.807285 0.133765 0.735964
853 2 0.714216 0.120191 0.769489
909 2 0.562354 0.0240575 0.760977
859 2 0.663659 0.082332 0.73293
356 1 0.876308 0.277377 0.729549
830 2 0.967665 0.141694 0.723831
871 2 0.0633844 0.178781 0.684574
876 2 0.0119007 0.298683 0.716491
385 1 0.817284 0.236749 0.778919
381 1 0.163217 0.414603 0.77275
805 2 0.152164 0.327505 0.696365
831 2 0.193491 0.510009 0.747234
416 1 0.985853 0.436702 0.769419
359 1 0.48224 0.334817 0.681564
881 2 0.2309 0.25037 0.724027
389 1 0.407233 0.289478 0.727909
863 2 0.148603 0.362031 0.732924
361 1 0.712355 0.390154 0.721967
370 1 0.551917 0.340679 0.719257
864 2 0.540488 0.170024 0.712854
390 1 0.690675 0.252944 0.739516
414 1 0.541264 0.251518 0.753825
351 1 0.931752 0.447032 0.720392
384 1 0.98167 0.25499 0.764841
861 2 0.0707301 0.516986 0.725168
858 2 0.916214 0.591259 0.743399
387 1 0.886744 0.793386 0.725773
848 2 0.937448 0.584328 0.707077
368 1 0.202312 0.666549 0.720075
828 2 0.339345 0.571876 0.725125
373 1 0.222625 0.811512 0.737892
844 2 0.599958 0.499011 0.701987
336 1 0.619195 0.557602 0.737676
874 2 0.484734 0.612912 0.714272
386 1 0.82139 0.387676 0.75594
870 2 0.746939 0.560995 0.720389
352 1 0.152193 0.0491999 0.701255
886 2 0.173933 0.88912 0.707883
867 2 0.0715644 0.805594 0.72586
367 1 0.0130137 0.00750623 0.714301
397 1 0.268382 0.996805 0.729476
873 2 0.506588 0.883157 0.710032
379 1 0.483717 0.814487 0.745643
423 1 0.366045 0.858811 0.729073
875 2 0.79028 0.919389 0.707644
337 1 0.566022 0.743909 0.71739
869 2 0.699975 0.939455 0.755783
865 2 0.952954 0.896299 0.696522
371 1 0.885157 0.00192608 0.730789
422 1 0.702199 0.813689 0.730477
900 2 0.146258 0.940819 0.747937
407 1 0.0194795 0.327134 0.816648
877 2 0.151559 0.00358325 0.782196
382 1 0.395636 0.967422 0.757471
413 1 0.156037 0.175748 0.810381
388 1 0.45526 0.0258883 0.796066
924 2 0.548934 0.165482 0.794043
949 2 0.647374 0.0227471 0.800493
920 2 0.742373 0.138172 0.81244
405 1 0.962391 0.19125 0.79864
401 1 0.877172 0.0739979 0.809945
411 1 0.106917 0.495349 0.811759
393 1 0.301903 0.454882 0.788917
857 2 0.292889 0.267425 0.780619
412 1 0.180089 0.351848 0.810379
892 2 0.334339 0.144627 0.801819
887 2 0.457769 0.45207 0.79138
410 1 0.569702 0.435226 0.76376
884 2 0.435709 0.31503 0.772655
889 2 0.687759 0.324847 0.772849
930 2 0.674891 0.276184 0.81826
406 1 0.875829 0.35842 0.792073
935 2 0.803443 0.549878 0.814469
363 1 0.0752637 0.600123 0.780945
885 2 0.956921 0.694127 0.766568
891 2 0.104109 0.642135 0.745324
866 2 0.254087 0.676527 0.760884
369 1 0.298953 0.358307 0.748038
898 2 0.367933 0.716273 0.74656
893 2 0.372787 0.61143 0.779112
868 2 0.515908 0.575074 0.770369
391 1 0.737586 0.507689 0.772416
400 1 0.422594 0.447413 0.739697
919 2 0.482481 0.72278 0.781887
394 1 0.662922 0.483175 0.806357
415 1 0.632786 0.626136 0.789934
890 2 0.894617 0.550135 0.784209
895 2 0.796032 0.66413 0.755257
856 2 0.850802 0.738844 0.794388
944 2 0.950013 0.446927 0.825968
910 2 0.0184735 0.835449 0.789494
383 1 0.190182 0.854034 0.788448
922 2 0.940507 0.963245 0.844449
398 1 0.000725963 0.949965 0.76887
424 1 0.11602 0.772844 0.763072
430 1 0.31747 0.827056 0.769971
378 1 0.286541 0.968485 0.802238
449 1 0.329685 0.741185 0.80463
404 1 0.627383 0.7201 0.755614
923 2 0.451082 0.885761 0.790936
380 1 0.604841 0.858658 0.773965
396 1 0.75726 0.80048 0.768574
425 1 0.778194 0.990336 0.783038
399 1 0.532735 0.81343 0.819514
879 2 0.879945 0.099664 0.769524
473 1 0.871059 0.887572 0.758038
899 2 0.690133 0.815765 0.802152
420 1 0.866864 0.882229 0.796246
896 2 0.0489501 0.118605 0.773902
880 2 0.0537051 0.0729284 0.836085
908 2 0.155084 0.106487 0.87723
427 1 0.301074 0.13147 0.877653
937 2 0.165521 0.239325 0.851414
431 1 0.233513 0.0626025 0.840875
883 2 0.466702 0.111253 0.824546
878 2 0.328735 0.179241 0.839587
409 1 0.457488 0.189472 0.862197
450 1 0.626852 0.949318 0.842199
941 2 0.507467 0.254758 0.828439
995 2 0.451585 0.988122 0.895189
904 2 0.633821 0.161874 0.842143
402 1 0.795612 0.10483 0.846369
931 2 0.764383 0.947938 0.857713
916 2 0.131523 0.950972 0.859316
426 1 0.95967 0.138338 0.859632
408 1 0.223008 0.573977 0.788835
418 1 0.179789 0.39658 0.844807
436 1 0.0572604 0.430447 0.914569
934 2 0.322029 0.331405 0.86259
443 1 0.386301 0.329218 0.809486
913 2 0.379696 0.452903 0.831152
440 1 0.462326 0.576776 0.851273
964 2 0.55435 0.346438 0.800594
429 1 0.542971 0.451389 0.828423
445 1 0.636939 0.557652 0.84087
915 2 0.822495 0.575726 0.866072
417 1 0.839645 0.243803 0.819321
460 1 0.762469 0.450663 0.847979
912 2 0.00730533 0.326224 0.857209
469 1 0.846404 0.616275 0.912903
447 1 0.899665 0.463807 0.886357
392 1 0.977395 0.664438 0.806287
441 1 0.078211 0.688592 0.838074
497 1 0.966312 0.592546 0.879245
917 2 0.157279 0.705313 0.802109
894 2 0.319198 0.616919 0.862946
940 2 0.222017 0.604252 0.828445
942 2 0.224479 0.755849 0.839541
939 2 0.480748 0.614438 0.813125
938 2 0.346783 0.738132 0.902162
943 2 0.401102 0.72092 0.837526
458 1 0.487182 0.725606 0.880759
914 2 0.558969 0.717408 0.848455
395 1 0.748089 0.670443 0.83044
911 2 0.842784 0.832375 0.835764
972 2 0.920962 0.665758 0.842212
945 2 0.837149 0.732238 0.879389
897 2 0.066649 0.955423 0.812522
499 1 0.208542 0.884436 0.826501
948 2 0.283479 0.965621 0.867631
403 1 0.359585 0.89617 0.827798
434 1 0.44627 0.993811 0.851036
925 2 0.361167 0.826659 0.866963
444 1 0.645026 0.941439 0.883129
472 1 0.687159 0.803023 0.856279
991 2 0.518837 0.872257 0.862891
428 1 0.0332445 0.819801 0.82761
421 1 0.750182 0.957031 0.819559
453 1 0.26357 0.0308129 0.910294
457 1 0.0899748 0.118309 0.912331
996 2 0.197777 0.984936 0.946951
932 2 0.119366 0.270851 0.889836
446 1 0.3982 0.101527 0.909467
903 2 0.394436 0.964927 0.935292
433 1 0.230624 0.159419 0.927378
928 2 0.402142 0.272961 0.898973
888 2 0.614432 0.352014 0.8538
496 1 0.555753 0.264394 0.931726
974 2 0.580891 0.267044 0.891845
459 1 0.747909 0.130922 0.883059
481 1 0.565211 0.0678754 0.872689
975 2 0.75124 0.274498 0.860589
905 2 0.892455 0.293668 0.881167
954 2 0.895163 0.0380697 0.930745
901 2 0.0693295 0.516565 0.858074
470 1 0.118106 0.2615 0.928554
438 1 0.165513 0.426731 0.881881