ITEM: TIMESTEP
14060
ITEM: NUMBER OF ATOMS
1000
ITEM: BOX BOUNDS pp pp pp
0.0000000000000000e+00 6.2996052494743662e+00
0.0000000000000000e+00 6.2996052494743662e+00
0.0000000000000000e+00 2.5198420997897465e+01
ITEM: ATOMS id type xs ys zs
951 2 0.190521 0.164199 0.00192958
581 2 0.20077 0.233492 0.0342573
528 2 0.0644979 0.103287 0.0361218
498 1 0.19667 0.0230276 0.0218372
571 2 0.448904 0.172306 0.00223533
526 2 0.313801 0.112229 0.0301328
29 1 0.461139 0.0982836 0.0384103
986 2 0.663564 0.135494 0.0106548
503 2 0.678126 0.245605 0.0442199
918 2 0.895029 0.0587972 0.023802
27 1 0.802611 0.154724 0.0466485
45 1 0.760207 0.00861109 0.0323818
71 1 0.945943 0.221065 0.00758229
982 2 0.932746 0.215808 0.0455112
13 1 0.0589164 0.290958 0.029554
510 2 0.158632 0.355081 0.0519537
927 2 0.146201 0.433856 0.996911
28 1 0.245585 0.346201 0.0189151
512 2 0.398991 0.237844 0.0385966
63 1 0.427127 0.503778 0.021786
7 1 0.315564 0.430966 0.0483276
573 2 0.397565 0.356936 0.00714591
511 2 0.539523 0.392831 0.0355491
505 2 0.536757 0.279265 0.00417151
522 2 0.560232 0.457087 0.994651
574 2 0.69931 0.383526 0.0292484
477 1 0.862439 0.325512 0.0240406
73 1 0.831039 0.467959 0.0360078
487 1 0.954789 0.449071 0.00769723
85 1 0.174625 0.538841 0.0369442
532 2 0.977019 0.535846 0.0403195
997 2 0.0906239 0.639203 0.0473945
987 2 0.138038 0.572834 0.00343524
558 2 0.466169 0.500642 0.0588131
9 1 0.340011 0.644536 0.0330679
56 1 0.463589 0.669846 0.0607091
552 2 0.643325 0.529031 0.0333122
33 1 0.570275 0.747983 0.0412086
520 2 0.693666 0.654147 0.0561984
6 1 0.721628 0.711307 0.0171645
506 2 0.57579 0.700096 0.00169255
49 1 0.826863 0.613416 0.0151144
524 2 0.935553 0.709555 0.031411
494 1 0.164915 0.81603 0.0224085
525 2 0.0273361 0.848693 0.0402069
23 1 0.143112 0.939622 0.0531658
471 1 0.0400935 0.978095 0.018375
19 1 0.991231 0.805809 0.00497888
12 1 0.405523 0.977608 0.0199308
947 2 0.404319 0.816774 0.05526
455 1 0.440061 0.775918 0.0189446
48 1 0.286823 0.894082 0.0345555
545 2 0.720635 0.859156 0.028995
468 1 0.623798 0.98991 0.0348521
31 1 0.527253 0.885977 0.00727964
549 2 0.892417 0.894641 0.0273722
967 2 0.969217 0.982069 0.0570411
488 1 0.840577 0.772957 0.000389786
57 1 0.104889 0.194688 0.102475
560 2 0.244379 0.069266 0.0659775
977 2 0.120297 0.198099 0.0637543
546 2 0.0876512 0.0565914 0.0789997
52 1 0.286625 0.23839 0.0744292
92 1 0.390158 0.125183 0.0750822
559 2 0.24933 0.121518 0.100405
34 1 0.498006 0.215385 0.103608
577 2 0.392819 0.00528132 0.116514
17 1 0.686056 0.0998568 0.0629797
516 2 0.532807 0.0648048 0.086797
565 2 0.665137 0.0958858 0.104392
96 1 0.523228 0.266902 0.0548714
507 2 0.80325 0.0144426 0.0734631
486 1 0.935189 0.202602 0.0955527
42 1 0.792804 0.189079 0.0896971
550 2 0.944559 0.0340077 0.0952291
544 2 0.0298658 0.366185 0.0926961
957 2 0.00760963 0.531534 0.0968909
985 2 0.191304 0.322553 0.0955078
125 1 0.142051 0.484803 0.119451
65 1 0.145784 0.47923 0.0746803
527 2 0.437502 0.367493 0.0724637
78 1 0.319859 0.249296 0.113877
561 2 0.331321 0.406741 0.0973941
521 2 0.648845 0.23882 0.0882286
79 1 0.612244 0.383397 0.0744648
533 2 0.699351 0.486898 0.106855
35 1 0.725253 0.477377 0.0655614
62 1 0.510402 0.432538 0.102854
529 2 0.781273 0.318065 0.0648351
485 1 0.912377 0.4445 0.0652005
41 1 0.840975 0.337324 0.101453
523 2 0.166592 0.646035 0.0899435
963 2 0.281455 0.580139 0.0700307
538 2 0.445963 0.595519 0.0914811
547 2 0.341923 0.718051 0.0855008
551 2 0.293836 0.555137 0.110595
15 1 0.606538 0.560082 0.0770162
64 1 0.73701 0.639003 0.0920012
86 1 0.857799 0.622158 0.0591936
37 1 0.994139 0.651112 0.0772534
77 1 0.861115 0.538249 0.0936423
40 1 0.857118 0.743892 0.0851626
542 2 0.966717 0.711491 0.1181
514 2 0.249952 0.787808 0.061074
70 1 0.0918901 0.761404 0.0694923
555 2 0.109646 0.934982 0.100347
139 1 0.188003 0.784186 0.103368
537 2 0.342193 0.8691 0.10536
548 2 0.385196 0.9757 0.0688264
95 1 0.568358 0.896273 0.0610183
998 2 0.563658 0.731483 0.0911728
598 2 0.658951 0.927054 0.0930064
513 2 0.498173 0.889851 0.0988117
534 2 0.689203 0.793733 0.0665626
502 2 0.717574 0.794731 0.108008
21 1 0.838766 0.879639 0.0627366
39 1 0.974101 0.841177 0.0822694
575 2 0.81931 0.905771 0.101678
539 2 0.163695 0.108034 0.142318
93 1 0.0142174 0.137525 0.132182
589 2 0.268296 0.228489 0.149794
599 2 0.460778 0.147317 0.136199
88 1 0.316116 0.0681395 0.153249
554 2 0.643851 0.200688 0.132658
90 1 0.577943 0.0832012 0.17099
105 1 0.700713 0.0639907 0.148725
566 2 0.944892 0.17025 0.163419
576 2 0.798239 0.213549 0.130451
541 2 0.883966 0.019986 0.159505
60 1 0.823086 0.0678547 0.126082
26 1 0.786646 0.147417 0.175148
11 1 0.0923921 0.33897 0.127788
107 1 0.106048 0.433116 0.155211
82 1 0.256611 0.40071 0.136237
101 1 0.245277 0.320917 0.180789
638 2 0.0883403 0.233099 0.157856
89 1 0.502375 0.338866 0.133478
595 2 0.409565 0.47111 0.135589
76 1 0.380815 0.348828 0.156635
100 1 0.657276 0.378262 0.124364
99 1 0.617463 0.30907 0.160484
557 2 0.587892 0.441767 0.155488
981 2 0.942558 0.302506 0.125664
1 1 0.966037 0.327203 0.166792
83 1 0.91434 0.477096 0.158108
590 2 0.829036 0.47953 0.125921
80 1 0.804785 0.311367 0.159412
517 2 0.0230705 0.550541 0.137083
632 2 0.0590153 0.583412 0.17288
97 1 0.252356 0.689601 0.168695
553 2 0.122996 0.668648 0.137051
87 1 0.215415 0.545431 0.167171
91 1 0.360243 0.592721 0.151855
509 2 0.453599 0.715504 0.116351
519 2 0.613242 0.622885 0.117971
587 2 0.615497 0.722433 0.146682
50 1 0.695763 0.557775 0.147501
144 1 0.526765 0.600379 0.153054
594 2 0.814091 0.651977 0.126026
615 2 0.748313 0.740481 0.165694
104 1 0.967736 0.699136 0.159406
597 2 0.245638 0.977258 0.123661
44 1 0.0257354 0.978284 0.13983
122 1 0.103348 0.771372 0.178415
578 2 0.141597 0.944066 0.167899
53 1 0.202594 0.822104 0.145534
98 1 0.0457455 0.824169 0.134917
38 1 0.358078 0.77601 0.144039
68 1 0.440238 0.958316 0.149221
570 2 0.428283 0.802745 0.17603
971 2 0.525169 0.849133 0.136815
543 2 0.561529 0.99815 0.126711
59 1 0.720176 0.926993 0.130092
530 2 0.574897 0.924123 0.168483
10 1 0.880411 0.84614 0.133709
540 2 0.799663 0.891992 0.167785
108 1 0.972808 0.860212 0.170627
583 2 0.196245 0.102291 0.182237
118 1 0.0477117 0.052865 0.17901
569 2 0.103195 0.235935 0.196136
128 1 0.116313 0.114584 0.227888
536 2 0.422703 0.0590632 0.18135
74 1 0.265734 0.18139 0.212358
112 1 0.418901 0.213267 0.175448
626 2 0.372059 0.0817888 0.223279
607 2 0.533092 0.250665 0.217959
110 1 0.555329 0.0393612 0.20956
157 1 0.599831 0.207665 0.189951
55 1 0.660067 0.162471 0.222169
117 1 0.696867 0.0264598 0.185821
109 1 0.993206 0.158678 0.201067
102 1 0.909498 0.996501 0.198497
667 2 0.00123277 0.0149442 0.23445
605 2 0.777985 0.0220602 0.227049
601 2 0.84026 0.17123 0.223411
610 2 0.013617 0.244631 0.22965
54 1 0.0495677 0.440227 0.193977
611 2 0.185034 0.288724 0.23123
535 2 0.0909035 0.407781 0.22985
609 2 0.204322 0.442547 0.20818
556 2 0.367419 0.493435 0.192207
531 2 0.480123 0.433248 0.225172
84 1 0.343162 0.312546 0.20993
671 2 0.496156 0.363223 0.191037
604 2 0.72775 0.442498 0.180713
585 2 0.754801 0.276511 0.196952
670 2 0.6303 0.392417 0.2094
623 2 0.751253 0.290811 0.234596
564 2 0.876288 0.454549 0.195372
150 1 0.769328 0.521177 0.216873
580 2 0.914203 0.296485 0.199202
161 1 0.880319 0.391964 0.228186
622 2 0.089713 0.649723 0.207093
141 1 0.41808 0.62966 0.190695
116 1 0.53475 0.507575 0.191978
608 2 0.379568 0.583211 0.22755
606 2 0.254901 0.602425 0.206333
14 1 0.6436 0.607786 0.180314
635 2 0.531765 0.589053 0.245729
593 2 0.541177 0.666174 0.206602
94 1 0.722486 0.65657 0.214404
111 1 0.811192 0.62218 0.182818
582 2 0.952456 0.617119 0.20213
621 2 0.95031 0.52555 0.236772
169 1 0.00640494 0.777855 0.226322
596 2 0.0373716 0.919363 0.205784
127 1 0.211861 0.992909 0.20973
120 1 0.207039 0.758694 0.232555
72 1 0.266142 0.81752 0.189416
613 2 0.387135 0.950851 0.212595
562 2 0.301432 0.948087 0.176497
591 2 0.360662 0.771957 0.217674
66 1 0.622531 0.759362 0.185277
69 1 0.507279 0.848896 0.211111
572 2 0.622752 0.919747 0.227558
113 1 0.744878 0.809367 0.209973
563 2 0.893041 0.764109 0.201654
625 2 0.879297 0.892931 0.227157
603 2 0.24522 0.0646423 0.252083
119 1 0.132872 0.204199 0.265177
177 1 0.245042 0.07746 0.292606
176 1 0.110999 0.0492972 0.268534
124 1 0.386851 0.0315158 0.261608
138 1 0.469507 0.145176 0.246643
140 1 0.315896 0.196328 0.259453
579 2 0.593166 0.0393926 0.249096
151 1 0.769569 0.0904494 0.266368
183 1 0.577936 0.125324 0.280078
652 2 0.952393 0.144588 0.264835
618 2 0.191439 0.366221 0.265752
135 1 0.0262177 0.333029 0.265927
651 2 0.317875 0.426096 0.240936
586 2 0.426806 0.318142 0.244252
145 1 0.264136 0.25786 0.296766
612 2 0.443122 0.276241 0.282784
137 1 0.327977 0.389696 0.283316
592 2 0.708406 0.433533 0.244858
653 2 0.600335 0.255674 0.252888
675 2 0.571414 0.446351 0.265371
123 1 0.700474 0.411428 0.290232
126 1 0.666781 0.262263 0.288002
129 1 0.855055 0.284356 0.27555
630 2 0.885095 0.424004 0.276352
636 2 0.174243 0.540753 0.236493
620 2 0.10358 0.654663 0.293408
634 2 0.0671095 0.49948 0.274647
567 2 0.0899042 0.672712 0.25171
166 1 0.222036 0.512105 0.27492
617 2 0.415507 0.521856 0.264311
142 1 0.261316 0.638705 0.256646
115 1 0.414398 0.695801 0.262983
247 1 0.267186 0.739404 0.292905
164 1 0.52654 0.651103 0.296185
67 1 0.666376 0.560727 0.300703
665 2 0.685803 0.59629 0.249932
619 2 0.732684 0.670968 0.279907
81 1 0.831537 0.531109 0.256268
642 2 0.897696 0.674947 0.235513
160 1 0.945135 0.64773 0.277652
158 1 0.812764 0.556097 0.291984
616 2 0.133144 0.907732 0.244334
121 1 0.122286 0.783041 0.278814
614 2 0.0126502 0.928716 0.26657
568 2 0.229759 0.92984 0.27463
134 1 0.51861 0.901316 0.254354
672 2 0.316793 0.830754 0.251664
149 1 0.634638 0.752357 0.245395
103 1 0.54555 0.790321 0.283077
131 1 0.719514 0.912464 0.253725
147 1 0.615217 0.964784 0.282419
647 2 0.78631 0.764164 0.252716
648 2 0.97299 0.783288 0.264366
628 2 0.873797 0.994359 0.26348
655 2 0.829294 0.884623 0.2815
185 1 0.11933 0.157759 0.311419
687 2 0.0252333 0.0966517 0.336654
602 2 0.402054 0.125703 0.300186
197 1 0.263137 0.149352 0.323072
658 2 0.475076 0.00536573 0.320427
640 2 0.542876 0.195446 0.310189
627 2 0.648141 0.208415 0.344181
190 1 0.697865 0.104829 0.302438
719 2 0.64626 0.992258 0.327983
678 2 0.497812 0.117859 0.343014
172 1 0.989397 0.0300232 0.30163
679 2 0.857457 0.092223 0.307933
662 2 0.791866 0.226251 0.312076
180 1 0.966056 0.206434 0.302946
189 1 0.878687 0.145508 0.351187
130 1 0.184214 0.419531 0.305469
656 2 0.186379 0.271572 0.330759
649 2 0.0722994 0.320562 0.308681
220 1 0.186584 0.461353 0.341952
114 1 0.448144 0.427686 0.303674
168 1 0.433046 0.449805 0.348674
657 2 0.383205 0.285771 0.318349
637 2 0.561366 0.354348 0.298024
650 2 0.52208 0.288437 0.339657
699 2 0.700076 0.357676 0.332254
148 1 0.627603 0.482025 0.33454
639 2 0.853125 0.378695 0.31175
664 2 0.956422 0.285808 0.339577
641 2 0.0875255 0.569742 0.328079
691 2 0.233274 0.625315 0.31702
152 1 0.00397988 0.723923 0.315794
700 2 0.039712 0.672885 0.354906
697 2 0.375606 0.611489 0.298207
146 1 0.476148 0.573007 0.325087
661 2 0.317663 0.512022 0.326944
171 1 0.458716 0.714211 0.338061
170 1 0.746534 0.570069 0.346723
673 2 0.697993 0.732213 0.313488
195 1 0.611654 0.65922 0.33926
629 2 0.971654 0.516022 0.305629
191 1 0.954579 0.542271 0.343982
154 1 0.867734 0.75479 0.297085
155 1 0.839646 0.657639 0.328199
680 2 0.136328 0.973578 0.302525
175 1 0.0154932 0.852291 0.346535
231 1 0.153055 0.784966 0.323274
178 1 0.274785 0.86776 0.310514
682 2 0.147135 0.937434 0.339687
624 2 0.414365 0.765649 0.301457
153 1 0.386075 0.946885 0.2964
163 1 0.417362 0.882399 0.343875
646 2 0.285982 0.960715 0.337818
720 2 0.291966 0.745682 0.34448
696 2 0.526503 0.874113 0.313101
202 1 0.742631 0.879436 0.313451
724 2 0.620407 0.813134 0.348996
238 1 0.54961 0.960291 0.352642
588 2 0.964919 0.885472 0.305499
676 2 0.857485 0.792133 0.346897
159 1 0.867477 0.978293 0.336463
179 1 0.0626161 0.231715 0.359032
201 1 0.237651 0.197987 0.361873
677 2 0.149595 0.0757266 0.364871
211 1 0.112349 0.216194 0.396382
706 2 0.334595 0.093932 0.359001
188 1 0.265809 0.11956 0.394789
187 1 0.476815 0.0812754 0.379566
136 1 0.396513 0.239206 0.359667
162 1 0.417216 0.182009 0.405799
698 2 0.650118 0.0758478 0.370991
686 2 0.5421 0.234235 0.38171
716 2 0.696375 0.188544 0.404283
133 1 0.780241 0.216951 0.368204
690 2 0.980544 0.0798795 0.371418
749 2 0.786739 0.0300768 0.380335
705 2 0.882727 0.10654 0.409641
681 2 0.972727 0.991695 0.403244
584 2 0.0526879 0.43399 0.360301
106 1 0.169312 0.338211 0.378108
167 1 0.311259 0.364746 0.364273
736 2 0.315416 0.267881 0.392178
132 1 0.27514 0.4605 0.398549
143 1 0.451472 0.39258 0.390516
643 2 0.573827 0.397626 0.367575
217 1 0.726109 0.350004 0.3726
156 1 0.834728 0.427215 0.406302
194 1 0.846706 0.446111 0.355281
165 1 0.916716 0.262072 0.375945
710 2 0.97256 0.369629 0.398786
207 1 0.169058 0.599678 0.366213
688 2 0.145214 0.563187 0.401444
203 1 0.0869091 0.69933 0.413719
199 1 0.279985 0.642844 0.393588
645 2 0.332321 0.58595 0.36066
223 1 0.43971 0.691702 0.388222
237 1 0.420955 0.531926 0.406054
692 2 0.575234 0.499792 0.395949
631 2 0.524154 0.573114 0.36421
198 1 0.716204 0.698766 0.367769
173 1 0.613968 0.64928 0.397789
644 2 0.714848 0.496828 0.378092
674 2 0.876613 0.639193 0.374769
666 2 0.768369 0.595197 0.405246
196 1 0.969485 0.524719 0.387147
737 2 0.913687 0.685251 0.416186
225 1 0.149279 0.780409 0.366867
660 2 0.0684578 0.924718 0.379583
212 1 0.185743 0.878851 0.405031
182 1 0.294747 0.969196 0.389898
702 2 0.444159 0.927755 0.385299
221 1 0.33317 0.831649 0.376238
725 2 0.54745 0.818382 0.393419
633 2 0.597776 0.971201 0.396298
703 2 0.720143 0.922019 0.356751
229 1 0.698291 0.764979 0.409318
717 2 0.762997 0.911258 0.403119
654 2 0.901077 0.908751 0.374088
200 1 0.974222 0.76562 0.383138
209 1 0.835186 0.782559 0.394189
181 1 0.124688 0.0540123 0.408029
251 1 0.0909505 0.986136 0.458451
321 1 0.11818 0.122949 0.443137
213 1 0.263807 0.18379 0.426354
236 1 0.251847 0.00306011 0.44303
234 1 0.464074 0.213586 0.44036
257 1 0.382784 0.0431056 0.416156
208 1 0.443897 0.0631805 0.460757
284 1 0.261334 0.125971 0.463928
718 2 0.634563 0.216175 0.446653
233 1 0.532153 0.0740209 0.425548
684 2 0.70637 0.037037 0.43092
715 2 0.966728 0.0647837 0.4424
767 2 0.98527 0.190202 0.464274
689 2 0.821093 0.157717 0.44063
659 2 0.96979 0.227768 0.412184
244 1 0.985724 0.396799 0.450592
265 1 0.237284 0.335643 0.418039
184 1 0.0808542 0.297574 0.431589
261 1 0.104047 0.423974 0.410766
732 2 0.167856 0.413664 0.460334
763 2 0.206512 0.28306 0.453137
669 2 0.397513 0.363348 0.425761
242 1 0.249143 0.487233 0.4351
792 2 0.356088 0.405774 0.464508
747 2 0.354712 0.235252 0.465563
216 1 0.690496 0.439745 0.425877
714 2 0.538531 0.425432 0.432531
239 1 0.556205 0.336172 0.466553
193 1 0.614618 0.314012 0.41226
709 2 0.823527 0.274725 0.411165
240 1 0.763347 0.326543 0.446585
186 1 0.0918567 0.541658 0.453216
296 1 0.250433 0.64179 0.441161
745 2 0.098658 0.717633 0.453324
712 2 0.219037 0.7677 0.42365
713 2 0.383625 0.585123 0.455977
707 2 0.373051 0.716892 0.424518
255 1 0.486234 0.689959 0.464561
723 2 0.661304 0.644476 0.43771
779 2 0.520018 0.579475 0.433145
204 1 0.64235 0.485926 0.461629
693 2 0.953451 0.496612 0.425833
275 1 0.787064 0.526211 0.438356
246 1 0.798632 0.715867 0.439518
222 1 0.933841 0.624897 0.448422
205 1 0.0195787 0.860566 0.412788
746 2 0.116717 0.875602 0.438483
741 2 0.317416 0.890763 0.426629
214 1 0.443015 0.89314 0.457599
708 2 0.299459 0.78846 0.458599
232 1 0.505625 0.922922 0.425273
174 1 0.569204 0.773651 0.426327
683 2 0.595279 0.982382 0.458188
206 1 0.706282 0.853164 0.441199
727 2 0.606154 0.80172 0.468899
755 2 0.929001 0.80931 0.454401
224 1 0.870582 0.931278 0.434312
772 2 0.766775 0.982922 0.465686
210 1 0.117111 0.997477 0.496098
791 2 0.126452 0.186863 0.49112
290 1 0.103785 0.090024 0.528417
235 1 0.425738 0.118683 0.501754
757 2 0.271991 0.231056 0.499697
733 2 0.317272 0.0284905 0.491213
264 1 0.66912 0.0980044 0.469929
804 2 0.706121 0.159892 0.507602
309 1 0.583369 0.0508846 0.502545
738 2 0.536992 0.167421 0.476396
778 2 0.550428 0.206173 0.514283
215 1 0.845824 0.125369 0.478158
729 2 0.828937 0.0363977 0.506513
308 1 0.833917 0.176564 0.528758
711 2 0.00346351 0.0951548 0.496056
192 1 0.0761937 0.359443 0.489899
695 2 0.206611 0.406384 0.496855
315 1 0.113293 0.442691 0.526623
249 1 0.373171 0.447581 0.507704
259 1 0.33649 0.306767 0.527447
269 1 0.445541 0.294725 0.494849
721 2 0.747537 0.416208 0.48624
219 1 0.628215 0.331696 0.500707
685 2 0.905463 0.477617 0.471318
734 2 0.737084 0.252977 0.480291
739 2 0.886607 0.318308 0.473279
260 1 0.844622 0.350241 0.518813
740 2 0.978435 0.258997 0.507544
262 1 0.969026 0.473007 0.50583
278 1 0.245867 0.677459 0.485489
762 2 0.107249 0.52038 0.490197
766 2 0.267384 0.525747 0.47658
785 2 0.0742055 0.62674 0.525378
227 1 0.40035 0.634313 0.497393
218 1 0.474429 0.492756 0.482417
266 1 0.445028 0.741105 0.528565
722 2 0.655409 0.653769 0.478611
228 1 0.595163 0.534001 0.503283
694 2 0.662538 0.624549 0.530776
300 1 0.550955 0.686115 0.504136
663 2 0.850847 0.671491 0.483275
754 2 0.922176 0.6519 0.523133
701 2 0.992296 0.715309 0.490084
314 1 0.725784 0.738047 0.510007
230 1 0.784886 0.56678 0.508623
735 2 0.207263 0.907944 0.474229
726 2 0.0457074 0.860352 0.476847
793 2 0.152259 0.750905 0.506139
799 2 0.0565416 0.919514 0.528387
780 2 0.223281 0.919858 0.519235
731 2 0.465463 0.979265 0.518404
752 2 0.408041 0.800977 0.488789
753 2 0.543243 0.896875 0.494084
704 2 0.697837 0.95577 0.504121
250 1 0.915185 0.955249 0.472898
668 2 0.856999 0.886925 0.51917
774 2 0.798859 0.824269 0.481146
770 2 0.973535 0.804911 0.517573
272 1 0.187623 0.229509 0.532037
781 2 0.172106 0.170221 0.571971
281 1 0.07379 0.053683 0.56579
294 1 0.0406915 0.207941 0.550936
287 1 0.251577 0.0608066 0.532664
742 2 0.369487 0.168352 0.539042
310 1 0.327967 0.129868 0.575647
348 1 0.425289 0.0520872 0.559345
289 1 0.565947 0.0510736 0.543754
809 2 0.601661 0.199045 0.555874
824 2 0.71028 0.0645135 0.540334
277 1 0.756599 0.105939 0.575604
758 2 0.599787 0.0637941 0.581666
243 1 0.931289 0.0365729 0.531476
789 2 0.9363 0.139861 0.564279
295 1 0.116817 0.313675 0.566428
349 1 0.0663261 0.445999 0.578741
728 2 0.280768 0.266934 0.559604
267 1 0.265993 0.433519 0.536694
298 1 0.279142 0.412617 0.580836
263 1 0.459118 0.268224 0.564843
769 2 0.481852 0.504869 0.582591
366 1 0.404325 0.404985 0.560561
744 2 0.731654 0.471771 0.538874
759 2 0.699877 0.280554 0.534024
285 1 0.502708 0.350905 0.525188
270 1 0.629484 0.362199 0.560642
274 1 0.660189 0.485516 0.57836
761 2 0.822761 0.256518 0.564084
765 2 0.973555 0.341786 0.542531
776 2 0.882169 0.409925 0.56208
797 2 0.167753 0.548838 0.557352
811 2 0.0526222 0.611583 0.587081
283 1 0.169251 0.693992 0.564779
748 2 0.435093 0.559912 0.534931
299 1 0.348902 0.548711 0.564212
775 2 0.401455 0.689722 0.562243
258 1 0.257341 0.612014 0.526559
322 1 0.549072 0.640779 0.565053
254 1 0.573971 0.498027 0.544285
273 1 0.688945 0.642765 0.570368
790 2 0.979022 0.505651 0.547049
245 1 0.815242 0.584463 0.554691
306 1 0.786807 0.758271 0.547612
795 2 0.933911 0.65938 0.574883
280 1 0.205671 0.986621 0.565136
256 1 0.122279 0.852599 0.559488
751 2 0.283882 0.759357 0.532845
796 2 0.270725 0.820494 0.566797
798 2 0.38645 0.899322 0.552259
279 1 0.534313 0.922222 0.564598
350 1 0.570854 0.794914 0.575271
823 2 0.586572 0.77227 0.537827
282 1 0.670251 0.918557 0.541188
297 1 0.805231 0.948096 0.556951
730 2 0.976402 0.796628 0.555753
865 2 0.968481 0.935289 0.562538
802 2 0.214299 0.0747962 0.599703
302 1 0.0395166 0.213516 0.592446
771 2 0.20557 0.14423 0.637649
291 1 0.0149028 0.0688023 0.604886
252 1 0.105586 0.0193591 0.635277
832 2 0.34803 0.108157 0.618854
319 1 0.454938 0.152464 0.592858
292 1 0.309798 0.240168 0.641434
374 1 0.662403 0.0108681 0.62392
268 1 0.597933 0.195142 0.612022
803 2 0.511982 0.0827328 0.620399
784 2 0.88148 0.198104 0.600249
301 1 0.761414 0.132223 0.618306
808 2 0.851288 0.00738725 0.602154
810 2 0.987199 0.221145 0.62618
332 1 0.914511 0.0826359 0.630182
788 2 0.25022 0.249922 0.601287
782 2 0.120125 0.320631 0.643992
357 1 0.132972 0.369269 0.606094
764 2 0.392009 0.332301 0.600635
293 1 0.372102 0.489746 0.614449
248 1 0.469765 0.255436 0.629634
341 1 0.26239 0.385998 0.624237
794 2 0.53944 0.365046 0.601581
311 1 0.683006 0.299582 0.593067
845 2 0.671494 0.400631 0.621688
335 1 0.610747 0.307705 0.644913
328 1 0.529301 0.480354 0.626208
286 1 0.954401 0.322532 0.59005
320 1 0.819697 0.416208 0.598978
817 2 0.838522 0.304051 0.630239
331 1 0.968189 0.386191 0.625821
840 2 0.807631 0.478341 0.63461
814 2 0.22199 0.540265 0.597721
891 2 0.107475 0.497715 0.625232
825 2 0.984858 0.631684 0.623014
860 2 0.156104 0.653276 0.62124
288 1 0.448411 0.634859 0.594558
253 1 0.316792 0.622944 0.624552
368 1 0.300373 0.688921 0.589926
862 2 0.410462 0.550415 0.653377
241 1 0.597416 0.625142 0.602639
325 1 0.713636 0.741603 0.610492
813 2 0.723514 0.600669 0.633459
343 1 0.541339 0.654563 0.636625
303 1 0.760444 0.556725 0.599522
313 1 0.94405 0.502814 0.595923
750 2 0.855813 0.669537 0.616138
800 2 0.0914942 0.938608 0.594764
822 2 0.0540338 0.770482 0.593329
842 2 0.130498 0.836139 0.62305
777 2 0.434586 0.794209 0.591599
372 1 0.40951 0.955945 0.588552
743 2 0.332296 0.780779 0.624811
760 2 0.272882 0.905259 0.606096
756 2 0.404064 0.942071 0.62926
326 1 0.554535 0.928981 0.604284
818 2 0.537232 0.784354 0.618558
783 2 0.702613 0.909759 0.586031
324 1 0.696059 0.842666 0.637582
850 2 0.985041 0.93711 0.62242
271 1 0.9296 0.80384 0.617983
843 2 0.856211 0.83982 0.584578
807 2 0.0858122 0.155913 0.658547
347 1 0.159328 0.0339973 0.675247
416 1 0.232533 0.185326 0.6819
377 1 0.073443 0.224595 0.691821
787 2 0.361236 0.0995778 0.661118
323 1 0.338507 0.149397 0.708959
342 1 0.503787 0.148036 0.694528
333 1 0.509769 0.149736 0.655551
376 1 0.663513 0.164553 0.654479
353 1 0.637877 0.113722 0.688077
304 1 0.764814 0.0472698 0.657787
846 2 0.950006 0.0792582 0.681052
305 1 0.85325 0.177375 0.653028
827 2 0.784871 0.168251 0.68944
812 2 0.244033 0.384069 0.666394
861 2 0.107608 0.471712 0.662201
424 1 0.196618 0.351759 0.701089
387 1 0.033861 0.38806 0.695726
226 1 0.521202 0.440318 0.663891
834 2 0.407094 0.332789 0.669023
900 2 0.32875 0.485886 0.681397
365 1 0.749073 0.282898 0.666194
390 1 0.605513 0.280774 0.698198
859 2 0.614574 0.423365 0.699748
345 1 0.836376 0.420845 0.667206
871 2 0.971418 0.297029 0.666564
848 2 0.156207 0.499865 0.699831
815 2 0.2372 0.728465 0.653631
821 2 0.072664 0.72754 0.645899
836 2 0.147067 0.628947 0.670675
896 2 0.122725 0.675059 0.706078
801 2 0.246729 0.538822 0.649984
831 2 0.283057 0.624012 0.693326
847 2 0.423066 0.710372 0.654958
768 2 0.51772 0.595695 0.678122
816 2 0.659086 0.524778 0.664524
773 2 0.669027 0.684196 0.672016
355 1 0.00398651 0.724413 0.685053
340 1 0.75576 0.519034 0.69829
838 2 0.958143 0.517692 0.647154
839 2 0.891238 0.592688 0.677464
855 2 0.998898 0.557278 0.705569
423 1 0.807705 0.704711 0.697755
396 1 0.198733 0.788655 0.686616
867 2 0.237164 0.925342 0.649901
864 2 0.0649075 0.882693 0.663734
317 1 0.372632 0.849982 0.668094
346 1 0.290123 0.981183 0.681076
873 2 0.486638 0.775971 0.687553
874 2 0.458512 0.995453 0.670897
872 2 0.348463 0.757401 0.708563
819 2 0.565869 0.816963 0.654805
276 1 0.629967 0.97289 0.656756
358 1 0.704962 0.853181 0.672958
327 1 0.587699 0.933289 0.688557
849 2 0.859589 0.924245 0.651671
826 2 0.825082 0.771764 0.646704
330 1 0.771368 0.978513 0.693545
379 1 0.930545 0.94435 0.69886
833 2 0.247719 0.0920573 0.732538
876 2 0.11907 0.164186 0.759676
863 2 0.0859397 0.0947325 0.718601
307 1 0.375086 0.0156476 0.743767
389 1 0.687867 0.0260987 0.730389
882 2 0.664294 0.183712 0.731945
837 2 0.51729 0.240556 0.729917
854 2 0.523119 0.0791478 0.730522
352 1 0.987475 0.010356 0.73573
879 2 0.938423 0.133127 0.756768
930 2 0.816246 0.216266 0.743838
869 2 0.88079 0.10647 0.713828
830 2 0.006893 0.27947 0.75795
361 1 0.112796 0.251364 0.726528
857 2 0.193531 0.468154 0.758
386 1 0.0981043 0.407992 0.729804
338 1 0.34598 0.307774 0.70524
851 2 0.28828 0.467761 0.723108
359 1 0.249417 0.279035 0.737439
339 1 0.457697 0.408006 0.719771
408 1 0.394715 0.309929 0.749683
373 1 0.35211 0.463012 0.757971
449 1 0.630073 0.346677 0.737616
898 2 0.70517 0.45508 0.728158
375 1 0.512462 0.466245 0.754663
853 2 0.951288 0.263319 0.718828
410 1 0.95962 0.415854 0.743942
385 1 0.773541 0.328551 0.711516
370 1 0.888116 0.446436 0.710428
460 1 0.822122 0.361172 0.751297
362 1 0.205431 0.620108 0.731736
312 1 0.0969141 0.688273 0.757031
473 1 0.0463649 0.531813 0.747656
364 1 0.433158 0.553161 0.703521
367 1 0.364404 0.646426 0.735523
844 2 0.606621 0.561183 0.711178
360 1 0.577412 0.597931 0.750407
909 2 0.553138 0.736937 0.720852
430 1 0.60665 0.754565 0.764135
972 2 0.748765 0.591761 0.747867
404 1 0.708156 0.733602 0.731921
875 2 0.886043 0.620313 0.729101
411 1 0.884168 0.669882 0.763244
829 2 0.0668095 0.862608 0.707675
881 2 0.13139 0.954892 0.737647
805 2 0.0244634 0.832286 0.750237
841 2 0.191156 0.803772 0.727707
820 2 0.310196 0.896496 0.722778
316 1 0.4407 0.996679 0.708729
318 1 0.460692 0.85663 0.721495
886 2 0.531621 0.938918 0.750236
897 2 0.366461 0.808911 0.752345
852 2 0.27573 0.930436 0.76006
397 1 0.644466 0.873261 0.721957
354 1 0.682913 0.915523 0.760809
384 1 0.939704 0.774207 0.722021
334 1 0.790897 0.842696 0.708824
398 1 0.837804 0.907885 0.744984
786 2 0.213448 0.074898 0.773398
413 1 0.139791 0.208145 0.797799
880 2 0.0649459 0.025618 0.778348
916 2 0.0994182 0.0481018 0.816695
369 1 0.359806 0.0668397 0.787644
363 1 0.309855 0.185983 0.764394
443 1 0.464443 0.152098 0.765168
984 2 0.399338 0.229849 0.800172
895 2 0.610599 0.0799552 0.763323
884 2 0.60822 0.247318 0.773058
920 2 0.707058 0.00278388 0.793424
412 1 0.51379 0.130607 0.807441
429 1 0.688916 0.149805 0.804522
892 2 0.785354 0.0778667 0.75883
990 2 0.965221 0.186775 0.789512
964 2 0.846922 0.103676 0.797647
417 1 0.821505 0.231777 0.822716
835 2 0.206108 0.322245 0.777719
378 1 0.258844 0.323523 0.814476
393 1 0.0833171 0.349019 0.807294
932 2 0.190904 0.477462 0.82514
441 1 0.0742757 0.434834 0.776407
889 2 0.454559 0.349497 0.781562
828 2 0.309373 0.507879 0.794657
910 2 0.394086 0.393224 0.81563
414 1 0.71062 0.332072 0.812746
935 2 0.612873 0.451709 0.800576
422 1 0.677257 0.430187 0.767914
462 1 0.565554 0.265795 0.818944
329 1 0.803446 0.253091 0.785911
893 2 0.860631 0.468295 0.779703
806 2 0.937601 0.356206 0.789857
351 1 0.976716 0.477262 0.817715
371 1 0.134771 0.590837 0.804432
392 1 0.187008 0.725045 0.811652
344 1 0.0302095 0.733914 0.789395
901 2 0.46084 0.522649 0.786179
400 1 0.472843 0.671608 0.775227
858 2 0.311386 0.680791 0.788308
915 2 0.453608 0.591104 0.820368
917 2 0.56748 0.72811 0.812525
391 1 0.659523 0.631999 0.783383
381 1 0.746845 0.52182 0.80178
919 2 0.766929 0.7002 0.81124
912 2 0.97672 0.574349 0.792285
856 2 0.923064 0.679071 0.820361
877 2 0.195862 0.806869 0.773591
942 2 0.205232 0.955642 0.795897
420 1 0.0589761 0.874623 0.792199
924 2 0.482758 0.974281 0.78611
941 2 0.348214 0.913717 0.803165
383 1 0.358187 0.776074 0.818241
337 1 0.459834 0.835034 0.780012
421 1 0.605883 0.884786 0.798405
356 1 0.911034 0.990923 0.772835
922 2 0.784659 0.882307 0.807578
870 2 0.752772 0.78339 0.770335
921 2 0.948556 0.956217 0.810545
899 2 0.901427 0.82687 0.780763
457 1 0.0530045 0.190813 0.830828
954 2 0.0397813 0.219323 0.871855
968 2 0.183431 0.119591 0.848422
428 1 0.0730131 0.00939123 0.856758
476 1 0.304875 0.160573 0.821128
380 1 0.47922 0.213999 0.853186
403 1 0.352415 0.0991873 0.861168
949 2 0.648825 0.156014 0.846385
928 2 0.523812 0.0904208 0.879526
976 2 0.772228 0.0266704 0.828299
499 1 0.771087 0.165425 0.869062
453 1 0.896165 0.13483 0.84651
431 1 0.130417 0.349565 0.843237
426 1 0.208683 0.377414 0.876847
388 1 0.253732 0.246897 0.857731
878 2 0.303979 0.413623 0.847988
440 1 0.389649 0.303701 0.875075
953 2 0.622608 0.307983 0.849065
445 1 0.511427 0.422932 0.837405
458 1 0.520459 0.397877 0.874824
975 2 0.69328 0.435377 0.841063
888 2 0.742998 0.317318 0.877122
955 2 0.979249 0.327202 0.83291
435 1 0.908071 0.273486 0.875392
883 2 0.839249 0.381649 0.839079
966 2 0.00359304 0.460488 0.856395
931 2 0.84452 0.436426 0.871321
402 1 0.140204 0.507326 0.862334
944 2 0.0321185 0.603051 0.837568
911 2 0.0130828 0.753366 0.85161
407 1 0.182529 0.706188 0.851464
890 2 0.0681231 0.647642 0.877295
940 2 0.41333 0.547581 0.856661
913 2 0.295658 0.589416 0.830791
937 2 0.338536 0.737331 0.863274
461 1 0.263909 0.601382 0.874338
405 1 0.616216 0.582461 0.826021
887 2 0.523605 0.7133 0.857927
394 1 0.715338 0.569468 0.859834
939 2 0.567719 0.541499 0.869267
933 2 0.853453 0.567743 0.839301
497 1 0.775873 0.722173 0.848255
469 1 0.888834 0.717871 0.873063
406 1 0.0987238 0.896706 0.830041
438 1 0.184003 0.828231 0.875447
956 2 0.231976 0.979457 0.875088
22 1 0.256067 0.865869 0.840472
401 1 0.442451 0.832983 0.872677
452 1 0.273074 0.00905963 0.829998
434 1 0.424778 0.980975 0.834511
925 2 0.417018 0.988373 0.878847
382 1 0.513269 0.837915 0.834447
866 2 0.644677 0.806463 0.864865
481 1 0.560285 0.0022614 0.819506
868 2 0.699064 0.971295 0.855877
336 1 0.693247 0.84047 0.831678
885 2 0.89478 0.835529 0.826531
399 1 0.795434 0.8643 0.860268
425 1 0.91142 0.962695 0.848185
427 1 0.794002 0.995522 0.885594
995 2 0.0797318 0.0848822 0.89196
479 1 0.146381 0.139047 0.928808
483 1 0.166836 0.24242 0.89394
419 1 0.243432 0.0813947 0.908239
446 1 0.333398 0.175924 0.946491
934 2 0.365084 0.172583 0.900329
474 1 0.372894 0.0222331 0.91394
493 1 0.486231 0.148692 0.925067
484 1 0.62056 0.0805673 0.931493
950 2 0.684227 0.209932 0.915462
450 1 0.654808 0.0678982 0.893947
929 2 0.988565 0.102807 0.926413
459 1 0.838286 0.179138 0.900295
945 2 0.800197 0.0613075 0.922496
996 2 0.00738858 0.282269 0.909476
25 1 0.158038 0.400671 0.920584
983 2 0.0412378 0.423539 0.891971
962 2 0.0248277 0.492954 0.933172