ITEM: TIMESTEP
11500
ITEM: NUMBER OF ATOMS
1000
ITEM: BOX BOUNDS pp pp pp
0.0000000000000000e+00 6.2996052494743662e+00
0.0000000000000000e+00 6.2996052494743662e+00
0.0000000000000000e+00 2.5198420997897465e+01
ITEM: ATOMS id type xs ys zs
46 1 0.137945 0.996637 0.037882
486 1 0.0318211 0.0913758 0.056596
13 1 0.209979 0.147799 0.0167297
28 1 0.307823 0.118132 0.048098
526 2 0.376891 0.279737 0.0651976
17 1 0.457295 0.196386 0.0328007
498 1 0.444833 0.00719218 0.0369174
454 1 0.272348 0.318551 0.0287093
529 2 0.614466 0.0660591 0.053392
573 2 0.589864 0.21647 0.0114549
571 2 0.590625 0.025266 0.0152447
36 1 0.708057 0.136155 0.0151527
544 2 0.885407 0.223375 0.0422708
534 2 0.779762 0.938696 0.0526422
507 2 0.895407 0.0868513 0.0229558
100 1 0.885996 0.069526 0.0732127
16 1 0.0281402 0.180839 0.0209441
528 2 0.142215 0.21973 0.0464886
510 2 0.135917 0.310695 0.0125583
987 2 0.185465 0.626115 0.0236002
927 2 0.16224 0.490653 0.988858
532 2 0.0559751 0.494565 0.0247342
489 1 0.313309 0.480407 0.024163
63 1 0.422896 0.590444 0.0358533
979 2 0.423139 0.302388 0.999863
506 2 0.5758 0.472289 0.0442347
999 2 0.649913 0.377076 0.0186931
982 2 0.691581 0.223784 0.0450081
512 2 0.464648 0.356568 0.0400649
477 1 0.992702 0.329745 0.000822229
485 1 0.830033 0.364244 0.0235313
977 2 0.969445 0.353293 0.0382377
73 1 0.769303 0.420187 0.0575513
963 2 0.317231 0.676489 0.0177454
86 1 0.0220034 0.628195 0.0365775
514 2 0.461609 0.773174 0.0230207
980 2 0.286204 0.569485 0.990293
989 2 0.734263 0.538293 0.0323448
998 2 0.525416 0.609322 0.0613822
33 1 0.713624 0.640148 0.0600484
978 2 0.460787 0.628839 0.996178
947 2 0.644308 0.708657 0.0279114
961 2 0.889049 0.534781 0.0279156
545 2 0.860693 0.685713 0.0362928
31 1 0.768694 0.651967 0.00367675
997 2 0.263038 0.740117 0.0509255
37 1 0.123475 0.762854 0.0204741
525 2 0.157283 0.856293 0.0511945
524 2 0.26126 0.841451 0.999588
18 1 0.323943 0.884178 0.0386995
918 2 0.285174 0.0138373 0.022206
9 1 0.413535 0.900197 0.00484276
12 1 0.556428 0.886579 0.0273255
95 1 0.748108 0.798835 0.0448166
29 1 0.755771 0.952735 0.0103697
971 2 0.60173 0.745479 0.063284
488 1 0.979205 0.815156 0.00980117
21 1 0.980621 0.794155 0.048718
936 2 0.0488777 0.988105 0.00676798
549 2 0.938227 0.943949 0.0323522
11 1 0.129429 0.146318 0.0872233
985 2 0.0932624 0.356842 0.0667903
560 2 0.325433 0.0184378 0.0758437
600 2 0.545054 0.209367 0.0642286
48 1 0.422687 0.144247 0.100427
548 2 0.490161 0.0763523 0.0727446
27 1 0.770639 0.0979476 0.047341
503 2 0.574831 0.174137 0.119965
1 1 0.974116 0.109674 0.102343
565 2 0.810463 0.0930914 0.105853
598 2 0.826919 0.245496 0.113596
41 1 0.926076 0.233139 0.0801225
85 1 0.188334 0.43584 0.0354467
77 1 0.0711296 0.429601 0.104196
581 2 0.242797 0.374732 0.0681021
7 1 0.397366 0.457281 0.0629787
527 2 0.404311 0.292262 0.11047
52 1 0.292233 0.198395 0.0864686
551 2 0.234513 0.470091 0.098613
521 2 0.69864 0.163868 0.0808395
552 2 0.614022 0.341862 0.073104
35 1 0.778556 0.28223 0.0770932
981 2 0.92123 0.466738 0.066188
89 1 0.924306 0.364045 0.115423
65 1 0.216379 0.568507 0.0615681
957 2 0.0613605 0.533278 0.071379
10 1 0.00964283 0.66406 0.109251
517 2 0.130977 0.590197 0.102479
70 1 0.127098 0.731578 0.0590422
64 1 0.896375 0.535883 0.110663
519 2 0.534135 0.624855 0.100627
547 2 0.331696 0.574676 0.106059
56 1 0.369255 0.632936 0.0724091
523 2 0.237909 0.718135 0.0930174
511 2 0.62379 0.515761 0.078023
15 1 0.668735 0.687464 0.101098
531 2 0.411742 0.540137 0.13833
537 2 0.392315 0.737514 0.0933457
520 2 0.82784 0.593592 0.0800408
40 1 0.973212 0.681077 0.0759499
533 2 0.773509 0.428613 0.0999539
967 2 0.995712 0.964578 0.082387
44 1 0.0413349 0.934404 0.117418
546 2 0.0794264 0.797258 0.0917925
57 1 0.14064 0.988866 0.0844548
39 1 0.930467 0.850055 0.0918807
23 1 0.28407 0.8805 0.0913635
543 2 0.428301 0.978739 0.114784
559 2 0.428167 0.871699 0.0690435
516 2 0.618526 0.893094 0.0682201
96 1 0.63208 0.0115869 0.0929876
577 2 0.515075 0.800463 0.098585
502 2 0.836455 0.750586 0.0761759
575 2 0.776531 0.92869 0.0896311
80 1 0.985228 0.158721 0.141196
566 2 0.134603 0.0170282 0.139454
82 1 0.129083 0.159936 0.123453
105 1 0.0338871 0.0348308 0.178275
580 2 0.994747 0.192429 0.182142
101 1 0.290823 0.20603 0.131425
555 2 0.248954 0.063169 0.117872
599 2 0.520461 0.151305 0.154581
93 1 0.330071 0.162845 0.174373
92 1 0.383868 0.106321 0.142462
99 1 0.669132 0.0899979 0.169383
79 1 0.659402 0.343676 0.110862
34 1 0.72284 0.189576 0.138792
59 1 0.747211 0.987523 0.134896
554 2 0.894807 0.0840935 0.164927
590 2 0.0285178 0.264377 0.102591
582 2 0.928068 0.435154 0.149889
83 1 0.186807 0.290063 0.104863
564 2 0.062636 0.338055 0.134031
595 2 0.0886974 0.457037 0.167958
125 1 0.167358 0.498863 0.136255
538 2 0.35173 0.419357 0.133217
561 2 0.27727 0.305668 0.165254
78 1 0.425981 0.26619 0.146779
556 2 0.410612 0.414647 0.179396
558 2 0.480149 0.468117 0.0952948
50 1 0.630044 0.487388 0.121628
62 1 0.503267 0.385524 0.133689
26 1 0.874857 0.262253 0.14859
604 2 0.742006 0.345973 0.145239
94 1 0.776965 0.482157 0.133649
54 1 0.985815 0.362373 0.184653
84 1 0.741295 0.421993 0.176174
550 2 0.255746 0.740974 0.132413
553 2 0.109365 0.65485 0.139677
98 1 0.0209781 0.746678 0.167336
91 1 0.165996 0.59776 0.171132
38 1 0.411806 0.684594 0.128776
570 2 0.480408 0.710353 0.199594
141 1 0.27733 0.612537 0.149939
97 1 0.362083 0.738993 0.171374
509 2 0.557348 0.577443 0.147486
116 1 0.429517 0.570827 0.176846
14 1 0.611592 0.691827 0.178066
90 1 0.615649 0.736253 0.134797
66 1 0.740203 0.633636 0.133456
594 2 0.960714 0.596958 0.142931
42 1 0.00216144 0.792089 0.128159
541 2 0.114823 0.884457 0.162155
542 2 0.18253 0.871526 0.124992
53 1 0.291507 0.950118 0.154332
597 2 0.35226 0.852649 0.124739
589 2 0.481341 0.00387634 0.165938
88 1 0.496745 0.832516 0.133763
69 1 0.622862 0.936887 0.173593
539 2 0.590103 0.00173375 0.13584
139 1 0.524677 0.812414 0.172724
513 2 0.665261 0.836664 0.107053
576 2 0.911012 0.0122431 0.127168
60 1 0.942121 0.908866 0.153927
587 2 0.859302 0.828219 0.124864
540 2 0.778133 0.767125 0.154268
68 1 0.793455 0.963788 0.176848
610 2 0.0767038 0.133211 0.209299
638 2 0.284477 0.240366 0.202019
118 1 0.24078 0.10899 0.224036
74 1 0.404645 0.116858 0.20963
586 2 0.426865 0.269158 0.229146
583 2 0.154837 0.132092 0.165672
112 1 0.475853 0.237738 0.191466
76 1 0.602988 0.291632 0.147213
110 1 0.583483 0.175279 0.219761
157 1 0.549836 0.0625505 0.196205
579 2 0.599012 0.060368 0.244966
150 1 0.873768 0.270338 0.192294
109 1 0.791128 0.119439 0.191681
605 2 0.918933 0.153499 0.221777
535 2 0.0249101 0.515087 0.219922
107 1 0.130308 0.278563 0.168913
651 2 0.117751 0.370237 0.202674
128 1 0.122487 0.255943 0.25019
87 1 0.261322 0.461706 0.163183
611 2 0.262454 0.386649 0.207562
608 2 0.547549 0.35311 0.206149
557 2 0.586628 0.450778 0.174388
671 2 0.702763 0.239997 0.195884
607 2 0.695172 0.357927 0.226112
601 2 0.979239 0.347663 0.225515
81 1 0.83955 0.394463 0.215486
104 1 0.883856 0.555042 0.212396
111 1 0.996232 0.571579 0.184066
622 2 0.133387 0.682928 0.205927
606 2 0.181207 0.534946 0.20423
618 2 0.126237 0.563318 0.245179
591 2 0.224937 0.685326 0.233385
632 2 0.284359 0.630197 0.197271
142 1 0.416486 0.650285 0.230959
72 1 0.389627 0.473013 0.213794
67 1 0.571178 0.559925 0.20565
592 2 0.661783 0.542621 0.240386
635 2 0.709292 0.526821 0.199613
563 2 0.76471 0.687027 0.207664
615 2 0.846083 0.561818 0.165383
108 1 0.956301 0.704707 0.204292
122 1 0.180766 0.746623 0.172151
596 2 0.193828 0.998675 0.191588
642 2 0.0396106 0.842372 0.198792
536 2 0.336522 0.0217505 0.183825
578 2 0.272074 0.859474 0.182635
127 1 0.330304 0.944584 0.218869
613 2 0.339546 0.754318 0.21383
562 2 0.421141 0.883455 0.194563
572 2 0.637931 0.959661 0.215661
144 1 0.689479 0.816244 0.188567
593 2 0.614104 0.713751 0.219997
117 1 0.906306 0.959854 0.21635
530 2 0.860192 0.826359 0.188851
55 1 0.747023 0.102756 0.233441
648 2 0.862858 0.780264 0.233635
602 2 0.190445 0.135715 0.272013
172 1 0.0402051 0.153252 0.285558
102 1 0.0433353 0.0856652 0.249146
603 2 0.374637 0.0780389 0.246943
134 1 0.475223 0.965398 0.229663
131 1 0.475978 0.951204 0.272429
137 1 0.396883 0.261926 0.271516
124 1 0.494196 0.168299 0.252605
653 2 0.594904 0.0341025 0.289357
151 1 0.762392 0.0946009 0.273722
623 2 0.685955 0.219708 0.257937
569 2 0.977294 0.288244 0.261513
667 2 0.887539 0.165498 0.261227
652 2 0.775401 0.270467 0.287539
140 1 0.149797 0.406198 0.246821
145 1 0.256964 0.269004 0.282742
166 1 0.15306 0.579322 0.285201
636 2 0.243708 0.463055 0.273442
626 2 0.284743 0.222037 0.243711
675 2 0.318328 0.379725 0.246556
612 2 0.508017 0.310502 0.300149
138 1 0.578594 0.304115 0.243236
637 2 0.642538 0.367315 0.280115
585 2 0.814588 0.245836 0.232373
634 2 0.835377 0.494133 0.24473
135 1 0.00615813 0.449148 0.263043
120 1 0.0299625 0.749441 0.236836
624 2 0.269137 0.65599 0.271492
620 2 0.0359907 0.634835 0.303164
617 2 0.303252 0.55244 0.236336
146 1 0.397307 0.550071 0.262285
103 1 0.35314 0.764082 0.252236
164 1 0.45676 0.694915 0.283439
114 1 0.455467 0.412256 0.270036
115 1 0.57357 0.680011 0.257035
670 2 0.515535 0.459818 0.237707
123 1 0.577662 0.504683 0.27903
665 2 0.833109 0.651546 0.246326
609 2 0.0757273 0.730183 0.273999
169 1 0.975781 0.603332 0.251778
629 2 0.881589 0.691951 0.28013
567 2 0.0525854 0.959124 0.222618
616 2 0.176362 0.846222 0.220227
121 1 0.0535347 0.883163 0.255796
672 2 0.199577 0.830639 0.259408
568 2 0.17584 0.0060113 0.245752
153 1 0.312115 0.902993 0.256256
149 1 0.508289 0.813013 0.233531
147 1 0.478557 0.861038 0.303039
113 1 0.749421 0.854543 0.225333
647 2 0.612558 0.880113 0.258981
160 1 0.748579 0.81143 0.259715
588 2 0.721002 0.970143 0.252927
175 1 0.995911 0.957841 0.284479
614 2 0.87812 0.00911227 0.265768
621 2 0.90019 0.855198 0.273563
646 2 0.236857 0.152259 0.316971
182 1 0.132352 0.110207 0.346075
680 2 0.0348406 0.0596992 0.31658
163 1 0.322684 0.0481639 0.283
197 1 0.412583 0.20011 0.309803
183 1 0.463115 0.102245 0.284228
640 2 0.584947 0.177636 0.307343
658 2 0.599083 0.0570125 0.333466
627 2 0.808994 0.063925 0.350747
628 2 0.749163 0.0456183 0.315571
119 1 0.951312 0.26578 0.295251
126 1 0.748614 0.187669 0.328188
180 1 0.879375 0.110166 0.296729
185 1 0.95921 0.183472 0.337428
661 2 0.17336 0.397944 0.319341
106 1 0.120385 0.25535 0.314101
584 2 0.0337159 0.452604 0.299537
687 2 0.997074 0.335392 0.338164
201 1 0.324808 0.366038 0.310404
650 2 0.495665 0.328006 0.341703
657 2 0.24811 0.27788 0.337488
167 1 0.359554 0.47454 0.336037
136 1 0.392407 0.277114 0.364944
662 2 0.608895 0.195971 0.347995
158 1 0.671933 0.302312 0.313592
129 1 0.730841 0.48656 0.28746
217 1 0.629623 0.372775 0.353362
133 1 0.806552 0.253213 0.355777
161 1 0.851666 0.352311 0.258042
699 2 0.835699 0.35179 0.317069
666 2 0.918084 0.526189 0.336759
194 1 0.73389 0.445575 0.330166
645 2 0.238004 0.456368 0.355718
641 2 0.17208 0.70939 0.310775
191 1 0.131443 0.540022 0.337416
720 2 0.274766 0.633048 0.341019
168 1 0.366509 0.531898 0.301711
619 2 0.59048 0.626119 0.306854
171 1 0.43839 0.634217 0.338367
143 1 0.494946 0.495444 0.357441
697 2 0.339309 0.716336 0.305253
630 2 0.730694 0.645642 0.282118
148 1 0.566349 0.449498 0.316669
198 1 0.595551 0.61628 0.34223
643 2 0.640709 0.51251 0.372241
170 1 0.740139 0.615199 0.327714
130 1 0.891706 0.530937 0.285566
649 2 0.873302 0.6761 0.317572
176 1 0.151786 0.973724 0.283574
700 2 0.0323663 0.913634 0.32929
207 1 0.200651 0.816455 0.337767
247 1 0.127931 0.84521 0.30358
177 1 0.394231 0.0206546 0.320967
696 2 0.307135 0.895498 0.303433
231 1 0.178607 0.964003 0.326201
691 2 0.36646 0.808408 0.333665
673 2 0.559577 0.766078 0.328608
154 1 0.623162 0.770933 0.291704
190 1 0.608737 0.907187 0.312577
152 1 0.909514 0.842488 0.316594
625 2 0.73602 0.918033 0.291729
639 2 0.766685 0.770855 0.301203
196 1 0.0241295 0.745334 0.335604
155 1 0.885423 0.988209 0.318289
195 1 0.704439 0.755986 0.342994
677 2 0.0363676 0.0963581 0.39307
211 1 0.100077 0.185171 0.424407
656 2 0.0606338 0.226607 0.368068
706 2 0.320071 0.131818 0.356454
678 2 0.456303 0.121076 0.34211
702 2 0.313441 0.919305 0.357844
187 1 0.516649 0.160394 0.404382
188 1 0.216563 0.0817072 0.384921
238 1 0.440722 0.0277168 0.381099
655 2 0.719507 0.91141 0.336946
633 2 0.659244 0.0735918 0.411343
698 2 0.605679 0.00687709 0.373741
159 1 0.781693 0.98455 0.382735
679 2 0.00711181 0.0373092 0.360822
179 1 0.892029 0.121547 0.383596
736 2 0.202664 0.227008 0.370038
213 1 0.314886 0.168882 0.399441
156 1 0.0879157 0.411477 0.364537
162 1 0.436758 0.294208 0.410601
669 2 0.44873 0.394021 0.383907
132 1 0.270794 0.352577 0.386995
686 2 0.698734 0.140155 0.374296
244 1 0.784166 0.460811 0.373016
692 2 0.570927 0.285028 0.379543
664 2 0.716671 0.301258 0.393278
718 2 0.635317 0.467355 0.407564
165 1 0.860904 0.284678 0.38926
184 1 0.97795 0.28131 0.41144
693 2 0.927323 0.409446 0.369907
216 1 0.94909 0.588553 0.376745
220 1 0.162862 0.561429 0.382117
199 1 0.142798 0.68196 0.359248
205 1 0.0658029 0.684402 0.398082
225 1 0.1856 0.811747 0.377919
631 2 0.368202 0.593406 0.373332
221 1 0.306477 0.748564 0.386112
725 2 0.425779 0.705471 0.40714
173 1 0.557267 0.613571 0.390263
676 2 0.68199 0.668839 0.371802
644 2 0.818401 0.612105 0.363481
186 1 0.0135926 0.447209 0.397834
275 1 0.842174 0.519502 0.410482
674 2 0.865407 0.747699 0.351549
682 2 0.140767 0.948699 0.360517
660 2 0.0157064 0.844679 0.362502
178 1 0.496522 0.909451 0.348103
223 1 0.457827 0.730731 0.369182
202 1 0.486777 0.875159 0.387187
174 1 0.619303 0.767009 0.41339
724 2 0.606708 0.803691 0.373125
690 2 0.940736 0.974252 0.394103
654 2 0.886391 0.90453 0.356849
200 1 0.921556 0.805531 0.388865
719 2 0.766009 0.840862 0.372819
236 1 0.101513 0.00481854 0.433689
261 1 0.217595 0.30496 0.429224
235 1 0.245117 0.0884438 0.427962
232 1 0.401943 0.0902793 0.429315
214 1 0.441033 0.965176 0.448944
684 2 0.577959 0.108539 0.44305
233 1 0.441216 0.099223 0.471693
705 2 0.732547 0.188177 0.448551
717 2 0.700996 0.00808011 0.44324
716 2 0.639169 0.242149 0.420225
729 2 0.587062 0.976766 0.476706
189 1 0.799785 0.182651 0.414673
715 2 0.822233 0.0689638 0.455906
659 2 0.869561 0.255136 0.450647
181 1 0.939159 0.126811 0.423657
321 1 0.995168 0.0907585 0.458078
710 2 0.130617 0.320148 0.39845
242 1 0.33804 0.38863 0.422076
265 1 0.050217 0.23657 0.457253
688 2 0.317014 0.510798 0.406478
714 2 0.395565 0.414822 0.458382
239 1 0.536449 0.378663 0.432922
689 2 0.678432 0.326466 0.454345
739 2 0.554996 0.381228 0.478429
240 1 0.744014 0.457543 0.439739
734 2 0.595479 0.162651 0.475409
192 1 0.0200927 0.382619 0.437813
709 2 0.849354 0.383112 0.426382
215 1 0.878197 0.38647 0.476004
203 1 0.218031 0.624749 0.423878
745 2 0.0519009 0.774532 0.437003
222 1 0.026814 0.54647 0.431596
296 1 0.157894 0.472406 0.422586
695 2 0.119749 0.604727 0.456803
193 1 0.467982 0.515381 0.414196
237 1 0.372344 0.606703 0.43607
204 1 0.521418 0.664921 0.430992
722 2 0.391096 0.742055 0.455858
723 2 0.674287 0.612713 0.416818
721 2 0.584505 0.532958 0.44817
663 2 0.736266 0.594382 0.464213
737 2 0.80528 0.695415 0.395397
767 2 0.886723 0.505696 0.454565
246 1 0.935107 0.655511 0.413848
685 2 0.732035 0.460721 0.479088
774 2 0.82424 0.722183 0.467671
212 1 0.236082 0.950945 0.400866
257 1 0.114163 0.873638 0.462161
681 2 0.087543 0.885936 0.405225
755 2 0.941455 0.822193 0.469664
746 2 0.192527 0.777667 0.41591
707 2 0.36231 0.888913 0.412836
208 1 0.490208 0.818578 0.429943
708 2 0.289063 0.946359 0.454827
683 2 0.583805 0.941528 0.417517
703 2 0.790369 0.851225 0.409284
228 1 0.640781 0.859565 0.444878
229 1 0.760283 0.721821 0.4361
209 1 0.904331 0.819254 0.433105
224 1 0.805716 0.893451 0.462807
749 2 0.828086 0.020081 0.41832
251 1 0.958871 0.959603 0.443399
732 2 0.246269 0.314225 0.483504
753 2 0.316685 0.158752 0.488052
735 2 0.183397 0.151589 0.458723
763 2 0.112419 0.286438 0.513981
264 1 0.532996 0.091691 0.507493
731 2 0.357912 0.0672571 0.523944
778 2 0.585862 0.274738 0.511321
255 1 0.443508 0.976016 0.494411
804 2 0.686009 0.156079 0.502564
711 2 0.00231207 0.219101 0.494236
250 1 0.752347 0.00503003 0.493168
284 1 0.168578 0.130883 0.501785
210 1 0.865659 0.132954 0.490831
759 2 0.717132 0.27035 0.534244
260 1 0.899673 0.315611 0.514854
272 1 0.126073 0.39925 0.4671
262 1 0.0168924 0.537909 0.475967
765 2 0.00763564 0.388186 0.49021
747 2 0.209756 0.452794 0.521295
742 2 0.331959 0.247021 0.522098
712 2 0.247867 0.48383 0.450641
234 1 0.349954 0.257715 0.44995
738 2 0.473534 0.238297 0.489291
792 2 0.337184 0.438653 0.495377
259 1 0.443564 0.386136 0.521532
230 1 0.730854 0.32255 0.499708
779 2 0.434957 0.553961 0.466524
219 1 0.625478 0.450065 0.516671
740 2 0.858791 0.454552 0.522518
761 2 0.800463 0.37649 0.547899
206 1 0.959434 0.665905 0.45959
762 2 0.0238456 0.496291 0.521937
273 1 0.0581636 0.634309 0.53574
267 1 0.147729 0.579867 0.499646
766 2 0.207452 0.717445 0.500424
713 2 0.298303 0.614145 0.473095
218 1 0.493184 0.696059 0.489683
269 1 0.466582 0.54059 0.506126
744 2 0.738481 0.532907 0.513696
694 2 0.580931 0.536665 0.48556
748 2 0.617454 0.619877 0.517514
300 1 0.773273 0.705546 0.505722
245 1 0.873373 0.563932 0.494156
314 1 0.813605 0.659291 0.544699
780 2 0.154755 0.993449 0.521161
278 1 0.0940689 0.746632 0.478207
726 2 0.133162 0.00738874 0.479918
727 2 0.507824 0.843338 0.467592
741 2 0.243374 0.800243 0.464368
266 1 0.276825 0.900112 0.526173
733 2 0.277963 0.0102198 0.492941
227 1 0.370041 0.825406 0.491606
279 1 0.5348 0.84425 0.507889
668 2 0.625795 0.722273 0.466914
243 1 0.846117 0.916549 0.522739
772 2 0.727075 0.838544 0.49323
823 2 0.632718 0.965776 0.51376
308 1 0.759974 0.0684869 0.532327
701 2 0.989433 0.684386 0.501059
799 2 0.919233 0.986361 0.482644
770 2 0.91991 0.764961 0.527748
793 2 0.0156881 0.888209 0.49593
287 1 0.255149 0.0469357 0.549212
256 1 0.0905506 0.0484243 0.560107
788 2 0.176108 0.255827 0.58664
757 2 0.191375 0.198094 0.549863
802 2 0.189522 0.0495303 0.59177
310 1 0.324048 0.189146 0.578966
809 2 0.489839 0.0890837 0.554878
289 1 0.483271 0.22601 0.531642
277 1 0.604996 0.245657 0.570409
294 1 0.765651 0.147565 0.565436
789 2 0.658112 0.0452053 0.568876
824 2 0.63153 0.154749 0.541501
290 1 0.0221681 0.0647767 0.512965
791 2 0.051092 0.194769 0.549346
280 1 0.901716 0.0880603 0.551649
298 1 0.229679 0.502412 0.576264
286 1 0.0058683 0.303346 0.590119
295 1 0.129794 0.378807 0.551896
299 1 0.059609 0.515855 0.56316
728 2 0.284494 0.347188 0.544592
764 2 0.426083 0.342741 0.562147
771 2 0.301011 0.225833 0.615873
270 1 0.591114 0.352721 0.543733
285 1 0.495032 0.507001 0.559047
366 1 0.710549 0.507458 0.555882
790 2 0.895463 0.250513 0.556677
274 1 0.98149 0.385658 0.541976
320 1 0.732729 0.326854 0.578954
315 1 0.903817 0.418809 0.57177
775 2 0.206251 0.594956 0.536593
797 2 0.122113 0.66902 0.569261
249 1 0.336474 0.620857 0.517146
263 1 0.339871 0.497912 0.549905
293 1 0.280709 0.648244 0.567248
248 1 0.395482 0.557136 0.586385
769 2 0.427906 0.670072 0.55612
254 1 0.661651 0.652201 0.559999
226 1 0.618264 0.564973 0.58901
783 2 0.673191 0.791343 0.572622
241 1 0.907731 0.567475 0.562263
750 2 0.801549 0.667886 0.582985
754 2 0.0844265 0.796544 0.521345
297 1 0.967942 0.670713 0.58619
752 2 0.206338 0.874103 0.494579
751 2 0.138167 0.886211 0.550502
798 2 0.246446 0.765243 0.54377
796 2 0.331555 0.955768 0.56753
743 2 0.391381 0.815456 0.572064
258 1 0.392195 0.79078 0.533204
348 1 0.481303 0.952791 0.579055
309 1 0.449981 0.93409 0.536092
704 2 0.721719 0.816643 0.534152
322 1 0.553149 0.754587 0.542017
282 1 0.595637 0.903227 0.546387
306 1 0.784261 0.933285 0.55819
730 2 0.0192236 0.949736 0.536039
350 1 0.841514 0.828917 0.578639
291 1 0.127205 0.22751 0.629225
302 1 0.0772523 0.0341605 0.617329
760 2 0.388119 0.0569082 0.598061
758 2 0.44796 0.948394 0.624914
756 2 0.309348 0.0824429 0.630037
372 1 0.505654 0.149447 0.630674
335 1 0.594714 0.242361 0.613754
311 1 0.734955 0.245842 0.622636
784 2 0.776905 0.101361 0.603004
776 2 0.899873 0.18309 0.604301
781 2 0.0277697 0.118777 0.589187
305 1 0.828503 0.130652 0.642803
271 1 0.00855177 0.00951189 0.663696
850 2 0.881246 0.998248 0.616156
349 1 0.142268 0.417314 0.608547
817 2 0.990096 0.311476 0.632642
292 1 0.255564 0.451399 0.633181
832 2 0.306801 0.380281 0.590648
268 1 0.467293 0.238276 0.594899
787 2 0.298441 0.294403 0.654409
319 1 0.488582 0.447986 0.613528
834 2 0.393997 0.342082 0.629421
794 2 0.578172 0.396908 0.580402
773 2 0.760678 0.387791 0.640688
313 1 0.669948 0.446606 0.612144
365 1 0.584825 0.333692 0.649713
331 1 0.832397 0.352708 0.607883
811 2 0.952084 0.486077 0.602242
845 2 0.782458 0.506413 0.591697
816 2 0.86408 0.277079 0.668503
341 1 0.104706 0.573688 0.600795
342 1 0.388833 0.539544 0.632814
328 1 0.241094 0.630637 0.609294
814 2 0.0991574 0.718636 0.610269
253 1 0.394039 0.713973 0.600616
768 2 0.532285 0.614322 0.615179
818 2 0.588407 0.720546 0.640281
317 1 0.317846 0.663996 0.641681
303 1 0.610944 0.505881 0.643903
325 1 0.727548 0.642017 0.613895
288 1 0.541751 0.708607 0.58206
795 2 0.994167 0.605381 0.629641
813 2 0.806337 0.572168 0.648684
825 2 0.881532 0.707733 0.618099
283 1 0.262328 0.779499 0.591743
800 2 0.155049 0.892126 0.603317
785 2 0.00182066 0.818146 0.558222
822 2 0.0624212 0.891147 0.635984
326 1 0.423485 0.774054 0.635149
842 2 0.318043 0.931487 0.612199
368 1 0.200544 0.78352 0.636957
826 2 0.700525 0.935925 0.658714
777 2 0.50649 0.829968 0.602484
324 1 0.625273 0.861995 0.63143
808 2 0.725817 0.954269 0.594822
374 1 0.588998 0.0126096 0.609489
281 1 0.973099 0.971212 0.582036
843 2 0.796358 0.828912 0.615755
865 2 0.971686 0.849875 0.610203
810 2 0.988835 0.120922 0.640184
347 1 0.138452 0.104684 0.653508
332 1 0.0804959 0.114329 0.693544
829 2 0.237472 0.183105 0.674786
820 2 0.254332 0.0155427 0.678382
276 1 0.385266 0.957933 0.66571
833 2 0.400022 0.13671 0.672681
827 2 0.474109 0.0154141 0.694143
803 2 0.573952 0.024365 0.659451
301 1 0.675715 0.0957237 0.631151
329 1 0.596642 0.12677 0.719093
846 2 0.94607 0.149868 0.673366
304 1 0.696661 0.103058 0.683949
849 2 0.829213 0.0164002 0.670307
358 1 0.75846 0.954164 0.717682
357 1 0.0910158 0.485123 0.651465
812 2 0.219456 0.482924 0.672637
807 2 0.159678 0.340833 0.658238
861 2 0.0245576 0.442096 0.694265
377 1 0.0354428 0.265516 0.672523
782 2 0.345434 0.421343 0.665782
333 1 0.446523 0.270486 0.663993
323 1 0.316636 0.29746 0.698486
837 2 0.566812 0.376364 0.706418
364 1 0.454053 0.554074 0.699528
330 1 0.577833 0.210351 0.677956
339 1 0.694929 0.344546 0.68916
376 1 0.734707 0.225364 0.66049
338 1 0.50232 0.423046 0.674439
840 2 0.897596 0.447571 0.658339
871 2 0.857516 0.385363 0.691743
801 2 0.179015 0.617296 0.64678
387 1 0.178745 0.66306 0.679464
891 2 0.0168453 0.590784 0.67213
862 2 0.326892 0.621269 0.683281
867 2 0.372578 0.764646 0.688704
847 2 0.491799 0.60203 0.660931
340 1 0.717634 0.473996 0.67025
844 2 0.606962 0.535225 0.704624
343 1 0.638559 0.6635 0.673321
848 2 0.906099 0.538435 0.691417
838 2 0.803079 0.652863 0.680029
345 1 0.927436 0.474986 0.724387
875 2 0.883458 0.694422 0.713625
821 2 0.138034 0.91389 0.672363
815 2 0.0703622 0.715276 0.646213
841 2 0.208715 0.874072 0.705133
855 2 0.00632931 0.844854 0.668655
836 2 0.0497348 0.736643 0.693964
396 1 0.095439 0.971118 0.708353
252 1 0.216645 0.972721 0.642695
872 2 0.352884 0.936942 0.701265
346 1 0.272391 0.841343 0.666789
874 2 0.526972 0.708671 0.696169
839 2 0.766661 0.727044 0.648075
819 2 0.534562 0.852285 0.670933
316 1 0.613481 0.978758 0.703284
873 2 0.685885 0.800879 0.690056
860 2 0.921292 0.708964 0.660506
355 1 0.890661 0.85082 0.646587
423 1 0.805167 0.865857 0.676163
857 2 0.263453 0.30831 0.735087
876 2 0.184011 0.166164 0.714074
806 2 0.0809714 0.326365 0.755406
805 2 0.118163 0.0656338 0.745718
881 2 0.232352 0.992245 0.725729
786 2 0.337295 0.092853 0.707999
854 2 0.375857 0.165998 0.753836
353 1 0.465206 0.0765266 0.7298
359 1 0.428798 0.355448 0.724023
334 1 0.637472 0.992336 0.741226
389 1 0.634104 0.113136 0.76639
869 2 0.759798 0.110334 0.726996
895 2 0.705239 0.988247 0.803274
853 2 0.837981 0.258641 0.747671
864 2 0.933978 0.0316432 0.697463
352 1 0.949519 0.14678 0.726279
416 1 0.175718 0.366359 0.700836
828 2 0.2291 0.451101 0.756109
361 1 0.0914205 0.462649 0.731297
851 2 0.294483 0.464483 0.705218
393 1 0.358817 0.363404 0.761066
408 1 0.346193 0.577451 0.761245
835 2 0.454151 0.207797 0.704742
307 1 0.509907 0.20437 0.742601
360 1 0.511726 0.500028 0.7438
889 2 0.580531 0.357047 0.752004
414 1 0.674754 0.225688 0.741022
390 1 0.793076 0.215513 0.69853
863 2 0.0262278 0.283335 0.718864
859 2 0.79918 0.362907 0.721901
386 1 0.953734 0.586813 0.759151
930 2 0.754047 0.346921 0.770571
362 1 0.17591 0.588307 0.712426
831 2 0.205974 0.725087 0.711652
312 1 0.116684 0.596606 0.749588
318 1 0.462923 0.690364 0.73487
400 1 0.509978 0.647938 0.772498
373 1 0.323177 0.605987 0.7263
370 1 0.782165 0.512801 0.710239
893 2 0.68396 0.550729 0.73877
898 2 0.710332 0.67488 0.71091
404 1 0.773279 0.813988 0.725316
424 1 0.0309227 0.58747 0.717466
473 1 0.790261 0.686685 0.745447
344 1 0.9848 0.703533 0.775559
398 1 0.025685 0.719725 0.740062
896 2 0.120237 0.849867 0.741027
367 1 0.220362 0.705826 0.747071
371 1 0.340342 0.817766 0.73461
886 2 0.399341 0.957789 0.744957
430 1 0.452571 0.81206 0.759523
897 2 0.252608 0.859666 0.766358
327 1 0.482758 0.875553 0.7121
909 2 0.62631 0.838364 0.754655
900 2 0.608026 0.687523 0.744136
356 1 0.905592 0.962368 0.739744
354 1 0.767753 0.924809 0.756585
379 1 0.956719 0.85035 0.707194
406 1 0.987575 0.873363 0.783785
899 2 0.892231 0.815908 0.751689
830 2 0.21228 0.209456 0.760779
910 2 0.135801 0.288151 0.787468
384 1 0.964094 0.21288 0.76568
413 1 0.126883 0.0816417 0.781527
412 1 0.227751 0.19142 0.80662
852 2 0.267241 0.0421192 0.765535
882 2 0.419476 0.0516437 0.781555
369 1 0.33908 0.228223 0.787789
941 2 0.403592 0.161015 0.819535
382 1 0.534281 0.0502653 0.811203
924 2 0.528338 0.187292 0.7828
460 1 0.770624 0.198265 0.788082
920 2 0.6767 0.140698 0.820921
880 2 0.973291 0.0975335 0.797447
877 2 0.985031 0.00283456 0.767587
879 2 0.840645 0.0759062 0.769325
922 2 0.819396 0.0865161 0.811602
990 2 0.903383 0.243772 0.802328
932 2 0.0394794 0.207845 0.81639
363 1 0.186892 0.448934 0.802374
443 1 0.348377 0.405858 0.798252
429 1 0.427878 0.399275 0.834435
884 2 0.63572 0.344078 0.793342
887 2 0.464369 0.437854 0.777785
391 1 0.623748 0.480645 0.821708
385 1 0.93094 0.388093 0.75544
381 1 0.859274 0.459337 0.788998
858 2 0.224225 0.589002 0.782547
441 1 0.0233231 0.496228 0.781558
497 1 0.939536 0.747718 0.820206
913 2 0.20337 0.640265 0.823321
917 2 0.367805 0.695425 0.792287
943 2 0.350966 0.638593 0.831511
933 2 0.488038 0.567029 0.810041
375 1 0.690783 0.697224 0.777458
410 1 0.803267 0.526996 0.753426
866 2 0.473941 0.728109 0.818465
449 1 0.5964 0.518891 0.786505
870 2 0.665504 0.724483 0.823514
885 2 0.830413 0.724585 0.785276
422 1 0.750216 0.544103 0.798018
411 1 0.912467 0.584291 0.79762
942 2 0.285499 0.804616 0.816136
392 1 0.133133 0.920365 0.777411
401 1 0.182726 0.746345 0.784195
916 2 0.0524613 0.959145 0.806141
476 1 0.261159 0.984735 0.806027
383 1 0.441248 0.865999 0.801226
923 2 0.462009 0.847617 0.855406
397 1 0.562785 0.933255 0.783317
337 1 0.570562 0.788848 0.797005
919 2 0.56321 0.89894 0.823308
856 2 0.814942 0.672158 0.829445
425 1 0.855973 0.933226 0.796969
972 2 0.735562 0.843918 0.789115
378 1 0.127345 0.0857206 0.819994
921 2 0.976161 0.0837215 0.839719
388 1 0.261177 0.04414 0.844983
949 2 0.530098 0.187985 0.851007
380 1 0.401643 0.999915 0.822875
405 1 0.688326 0.285404 0.831084
481 1 0.506712 0.0162936 0.848517
975 2 0.708121 0.274469 0.874784
499 1 0.904899 0.155062 0.871534
888 2 0.853406 0.255468 0.891591
976 2 0.813501 0.199934 0.840216
431 1 0.0796827 0.357241 0.840647
426 1 0.0677089 0.396323 0.880234
901 2 0.286057 0.505138 0.829976
878 2 0.216283 0.202532 0.8434
892 2 0.531363 0.267115 0.819648
984 2 0.314329 0.300634 0.824928
445 1 0.44648 0.365506 0.868105
418 1 0.226458 0.419944 0.859121
440 1 0.365102 0.231002 0.856473
883 2 0.754448 0.412804 0.852358
935 2 0.59596 0.372431 0.851132
960 2 0.631783 0.477094 0.880015
462 1 0.578598 0.270718 0.894927
351 1 0.0238359 0.383405 0.803917
964 2 0.778816 0.377841 0.813006
417 1 0.913952 0.33997 0.828225
944 2 0.847166 0.495983 0.826695
966 2 0.838822 0.413032 0.889482
940 2 0.0619659 0.582309 0.836914
937 2 0.222035 0.592616 0.860916
407 1 0.0724532 0.566137 0.879416
912 2 0.0672641 0.651668 0.804349
22 1 0.0841166 0.7855 0.853876
894 2 0.406397 0.685805 0.87512
939 2 0.531529 0.69315 0.851905
925 2 0.354695 0.817573 0.888779
394 1 0.665552 0.584007 0.847318
915 2 0.504414 0.529897 0.848062
931 2 0.636872 0.631451 0.880089
435 1 0.94423 0.500025 0.855841
902 2 0.949411 0.663845 0.855884
890 2 0.801616 0.552758 0.871008
395 1 0.809904 0.667387 0.89887
911 2 0.104353 0.79944 0.812623
452 1 0.280339 0.729356 0.852756
968 2 0.195924 0.841351 0.876839
428 1 0.13351 0.936547 0.839554
434 1 0.312245 0.889794 0.844536
934 2 0.29944 0.0978473 0.892477
868 2 0.619394 0.799567 0.861124
904 2 0.64206 0.930128 0.882872
914 2 0.530015 0.731925 0.890457
399 1 0.655893 0.993231 0.847274
403 1 0.384951 0.968076 0.874626
459 1 0.781908 0.910612 0.88329
336 1 0.774984 0.736627 0.861591
420 1 0.939173 0.929276 0.830005
421 1 0.800453 0.852325 0.836854
451 1 0.822255 0.00401477 0.845939
457 1 0.117889 0.0895936 0.868932
483 1 0.203624 0.210789 0.887097
995 2 0.163309 0.0288529 0.911961
996 2 0.125896 0.191071 0.934706
955 2 0.0404543 0.218486 0.853952
928 2 0.466223 0.114014 0.883043
2 1 0.502312 0.14834 0.927561
427 1 0.415241 0.0127676 0.913751
446 1 0.362271 0.196054 0.923834
953 2 0.761115 0.0852073 0.878457
409 1 0.607641 0.0990179 0.88077
20 1 0.557768 0.963903 0.928774
973 2 0.529855 0.303722 0.936699
479 1 0.973526 0.183291 0.932255
954 2 0.0512599 0.185619 0.891838
480 1 0.792835 0.230222 0.929295
75 1 0.87915 0.0987276 0.908591
436 1 0.212247 0.480181 0.891962
25 1 0.153485 0.336916 0.90546