ITEM: TIMESTEP
15060
ITEM: NUMBER OF ATOMS
1000
ITEM: BOX BOUNDS pp pp pp
0.0000000000000000e+00 6.2996052494743662e+00
0.0000000000000000e+00 6.2996052494743662e+00
0.0000000000000000e+00 2.5198420997897465e+01
ITEM: ATOMS id type xs ys zs
581 2 0.107539 0.165495 0.0451386
498 1 0.0510509 0.0245872 0.0507652
471 1 0.0555208 0.0964115 0.0075497
51 1 0.158967 0.222898 0.0106284
951 2 0.236565 0.0980939 0.0283306
526 2 0.352181 0.0158358 0.0134748
986 2 0.504184 0.15094 0.0087972
512 2 0.323013 0.207832 0.0471237
96 1 0.433599 0.105833 0.0404039
27 1 0.666549 0.192944 0.0131587
45 1 0.69566 0.0508254 0.0517613
17 1 0.560983 0.205529 0.0417334
518 2 0.650142 0.042626 0.0138288
528 2 0.951072 0.18284 0.0451698
918 2 0.900848 0.0473191 0.0214285
982 2 0.772352 0.168644 0.0375425
510 2 0.0271048 0.329348 0.0534021
927 2 0.0718588 0.358674 0.0121796
482 1 0.236097 0.310675 0.0329725
454 1 0.179188 0.459108 0.0255142
571 2 0.371413 0.275887 0.000355352
28 1 0.296527 0.438715 0.0667525
573 2 0.333953 0.424727 0.0113131
511 2 0.444091 0.341853 0.0359033
503 2 0.634005 0.387034 0.0412541
574 2 0.584801 0.331709 0.00311679
13 1 0.906971 0.31966 0.0278739
477 1 0.760102 0.321364 0.0223598
73 1 0.820626 0.479454 0.0221652
487 1 0.97111 0.456386 0.00929059
85 1 0.0256377 0.524608 0.0443444
987 2 0.0606543 0.635306 0.0118747
9 1 0.237378 0.595452 0.0363944
523 2 0.11584 0.677018 0.0418084
63 1 0.377765 0.518917 0.0322326
552 2 0.490354 0.623341 0.0388078
489 1 0.273887 0.648181 0.00474451
33 1 0.60763 0.747006 0.0334684
520 2 0.689481 0.601569 0.0086425
49 1 0.757624 0.633081 0.0412447
79 1 0.565906 0.516236 0.0110658
15 1 0.613921 0.559564 0.0481334
37 1 0.909178 0.719093 0.029002
36 1 0.874286 0.58648 0.000938443
997 2 0.183623 0.754597 0.0150175
494 1 0.0647299 0.943848 0.0119044
23 1 0.22953 0.923426 0.0283423
70 1 0.04554 0.849835 0.0462969
139 1 0.180309 0.791446 0.0566136
29 1 0.502068 0.991556 0.0112751
12 1 0.460378 0.87398 0.0365886
455 1 0.462771 0.73831 0.0153775
48 1 0.324716 0.754556 0.0357468
6 1 0.733499 0.742875 0.0100416
4 1 0.698759 0.900332 0.0249514
524 2 0.789514 0.78341 0.0473401
525 2 0.915479 0.885209 0.0282178
560 2 0.218421 0.0611481 0.0721138
52 1 0.202679 0.254438 0.0684361
559 2 0.100801 0.116226 0.100466
92 1 0.374752 0.157006 0.0813703
577 2 0.273606 0.0206923 0.107844
548 2 0.355213 0.00806478 0.0602052
89 1 0.444785 0.246606 0.108744
516 2 0.517215 0.127778 0.0755596
565 2 0.673103 0.0920342 0.115312
554 2 0.608567 0.237401 0.107906
967 2 0.838798 0.0702441 0.0619282
546 2 0.994361 0.204783 0.0852514
507 2 0.754061 0.164243 0.0846231
575 2 0.824524 0.0554088 0.10893
7 1 0.14849 0.516624 0.0627788
57 1 0.0959038 0.287329 0.101488
985 2 0.205623 0.412821 0.0967808
558 2 0.46607 0.465858 0.0656522
527 2 0.368991 0.295273 0.0784881
561 2 0.367033 0.420272 0.098366
34 1 0.534789 0.307714 0.0669349
42 1 0.712956 0.316608 0.0780031
521 2 0.596215 0.427752 0.0837592
529 2 0.755663 0.448302 0.0588794
977 2 0.868149 0.271755 0.0740232
544 2 0.966805 0.372719 0.0944029
485 1 0.909279 0.43351 0.056751
41 1 0.814286 0.401732 0.0947101
65 1 0.0553773 0.532533 0.0948037
963 2 0.158355 0.746217 0.0957282
594 2 0.0275023 0.6932 0.0752894
56 1 0.365247 0.627854 0.063611
947 2 0.467217 0.74224 0.0649827
125 1 0.275428 0.544234 0.110503
538 2 0.47269 0.531319 0.1018
551 2 0.401894 0.664861 0.112132
514 2 0.322771 0.74285 0.0875586
533 2 0.611056 0.569832 0.0923815
547 2 0.542109 0.701321 0.0947185
86 1 0.674199 0.693752 0.0752004
532 2 0.88096 0.60785 0.0554137
35 1 0.76241 0.565057 0.0835235
64 1 0.758594 0.685185 0.109399
77 1 0.90827 0.537945 0.089574
40 1 0.916857 0.6915 0.106338
555 2 0.106367 0.947595 0.0804358
98 1 0.00817244 0.848101 0.0938
38 1 0.242091 0.871696 0.109997
537 2 0.321865 0.856013 0.0667203
513 2 0.434279 0.0301639 0.0931029
545 2 0.643995 0.85566 0.0608028
468 1 0.571564 0.982433 0.0695778
95 1 0.486754 0.856074 0.0898205
998 2 0.670976 0.799131 0.108808
598 2 0.716906 0.94986 0.0994105
542 2 0.928189 0.78418 0.0676322
534 2 0.823146 0.822198 0.0943391
21 1 0.795775 0.924519 0.0620105
39 1 0.948748 0.97919 0.0779913
539 2 0.0540429 0.128457 0.148395
589 2 0.172906 0.186251 0.127951
88 1 0.206198 0.0404358 0.154632
54 1 0.212166 0.198471 0.165248
599 2 0.335059 0.143702 0.124048
105 1 0.485906 0.178894 0.150706
68 1 0.410729 0.0323925 0.138227
112 1 0.35487 0.132598 0.167907
566 2 0.737268 0.186356 0.14726
543 2 0.528415 0.0825438 0.123086
59 1 0.660578 0.0530197 0.155575
486 1 0.843805 0.199008 0.122667
550 2 0.971566 0.0350081 0.120746
93 1 0.931564 0.203305 0.158068
541 2 0.854228 0.00843914 0.145977
118 1 0.935976 0.0519149 0.174096
957 2 0.0612121 0.415617 0.123139
107 1 0.0220295 0.483762 0.155927
82 1 0.237095 0.416348 0.138367
638 2 0.0845232 0.277991 0.156468
78 1 0.285352 0.294214 0.112167
595 2 0.387303 0.462024 0.135873
76 1 0.377243 0.304912 0.142177
671 2 0.419936 0.379225 0.176887
62 1 0.528962 0.373363 0.117666
576 2 0.64032 0.47286 0.121742
60 1 0.728853 0.287517 0.118767
100 1 0.732582 0.392666 0.150983
99 1 0.601479 0.281848 0.155001
557 2 0.528279 0.472879 0.149154
981 2 0.890575 0.362736 0.135042
1 1 0.944754 0.363521 0.170122
83 1 0.869735 0.478022 0.160097
80 1 0.819162 0.275504 0.171009
11 1 0.1436 0.549274 0.128855
553 2 0.0621401 0.652412 0.117866
87 1 0.146538 0.668269 0.153246
97 1 0.241024 0.711891 0.122633
91 1 0.292423 0.549748 0.178839
144 1 0.414895 0.625337 0.154209
519 2 0.545932 0.625413 0.127263
50 1 0.675218 0.572915 0.152238
590 2 0.827798 0.522144 0.1233
517 2 0.817441 0.643825 0.145122
104 1 0.977871 0.730986 0.148253
632 2 0.0813536 0.763035 0.176316
597 2 0.114776 0.968789 0.121658
578 2 0.10697 0.934494 0.159663
53 1 0.11046 0.780247 0.133824
509 2 0.416863 0.869936 0.122521
570 2 0.400782 0.818924 0.166799
141 1 0.268943 0.769188 0.154501
72 1 0.295369 0.924397 0.142631
562 2 0.361313 0.983496 0.172154
502 2 0.686066 0.915056 0.136049
587 2 0.536113 0.795735 0.138389
971 2 0.529209 0.937483 0.159036
14 1 0.679871 0.747012 0.149751
615 2 0.833814 0.762883 0.167581
44 1 0.956659 0.868766 0.127027
10 1 0.818639 0.818551 0.129034
540 2 0.767993 0.91233 0.16623
108 1 0.959034 0.87098 0.171552
583 2 0.0801606 0.118592 0.192188
610 2 0.0464617 0.193741 0.226717
127 1 0.218192 0.0571139 0.202721
536 2 0.429287 0.0880195 0.211237
74 1 0.31029 0.197152 0.201874
90 1 0.652332 0.179088 0.199112
530 2 0.54001 0.0865295 0.180842
110 1 0.601711 0.0677567 0.224852
55 1 0.571571 0.234443 0.234737
26 1 0.766368 0.0966465 0.221075
117 1 0.77953 0.0876991 0.181286
109 1 0.919808 0.129815 0.212082
580 2 0.984638 0.253365 0.191564
569 2 0.145749 0.270828 0.196682
611 2 0.234652 0.342091 0.223178
535 2 0.105619 0.411363 0.208183
636 2 0.170206 0.467788 0.17554
101 1 0.287603 0.339115 0.185894
626 2 0.410192 0.270967 0.222017
609 2 0.325551 0.45765 0.210154
84 1 0.475134 0.459677 0.218335
607 2 0.565636 0.330717 0.19794
604 2 0.656953 0.497417 0.197336
670 2 0.672671 0.351561 0.222389
157 1 0.820891 0.257943 0.211847
585 2 0.973353 0.328715 0.22262
564 2 0.771045 0.392618 0.194274
622 2 0.101051 0.585683 0.1784
606 2 0.204906 0.679466 0.196317
169 1 0.069754 0.681215 0.212145
166 1 0.191971 0.542604 0.213399
556 2 0.511176 0.529182 0.183265
608 2 0.361564 0.603623 0.206875
635 2 0.442696 0.70889 0.229921
593 2 0.477551 0.697593 0.185212
531 2 0.63251 0.518029 0.231839
116 1 0.687904 0.661078 0.182437
665 2 0.580555 0.678562 0.214606
150 1 0.773013 0.540446 0.221119
94 1 0.921291 0.611833 0.217363
111 1 0.828452 0.578846 0.18664
582 2 0.976345 0.475821 0.196521
642 2 0.962565 0.635584 0.179529
122 1 0.112562 0.872229 0.203048
596 2 0.990731 0.967121 0.202352
120 1 0.238652 0.890667 0.183879
142 1 0.247298 0.808111 0.219858
616 2 0.211743 0.94667 0.230625
614 2 0.0144712 0.917055 0.238231
613 2 0.341142 0.942625 0.211927
591 2 0.354523 0.763661 0.198735
66 1 0.610254 0.803545 0.186717
69 1 0.491008 0.939988 0.194976
572 2 0.677069 0.97717 0.193021
102 1 0.839104 0.942783 0.196636
113 1 0.801102 0.779926 0.204169
563 2 0.963733 0.812131 0.208074
128 1 0.157954 0.122224 0.244304
119 1 0.204374 0.14898 0.284569
176 1 0.0930745 0.984724 0.265079
652 2 0.0416284 0.17246 0.268458
603 2 0.342486 0.12932 0.244068
124 1 0.370532 0.10995 0.294668
138 1 0.473177 0.203947 0.259875
151 1 0.683701 0.0768724 0.265057
183 1 0.504441 0.0652756 0.271792
126 1 0.680134 0.240303 0.28685
667 2 0.97034 0.0610124 0.243368
601 2 0.887793 0.209374 0.24307
129 1 0.813877 0.141843 0.283567
628 2 0.838615 0.0177307 0.262597
172 1 0.954039 0.0584904 0.286997
135 1 0.0939337 0.299904 0.257999
634 2 0.162262 0.451889 0.249929
567 2 0.998317 0.458401 0.244504
140 1 0.290183 0.260664 0.252274
618 2 0.269601 0.375171 0.27514
651 2 0.320608 0.476669 0.248474
586 2 0.412632 0.354813 0.255753
612 2 0.391741 0.2695 0.287428
114 1 0.498834 0.427884 0.282253
592 2 0.735709 0.397326 0.280004
653 2 0.588247 0.379195 0.253753
623 2 0.724058 0.267758 0.248299
161 1 0.910234 0.306468 0.273088
621 2 0.849985 0.411988 0.253458
160 1 0.94819 0.44843 0.288339
620 2 0.231473 0.5138 0.281224
247 1 0.189353 0.712978 0.290525
121 1 0.149229 0.617702 0.248162
641 2 0.0781276 0.539556 0.2844
152 1 0.00321003 0.637485 0.255124
617 2 0.461829 0.554341 0.252826
115 1 0.304387 0.644796 0.258286
697 2 0.377112 0.574676 0.289625
624 2 0.425147 0.713948 0.274516
675 2 0.64942 0.513237 0.269304
164 1 0.558214 0.653839 0.268643
647 2 0.690824 0.68252 0.248978
619 2 0.770829 0.651298 0.282031
81 1 0.85742 0.568892 0.255884
648 2 0.871868 0.719387 0.249741
154 1 0.945657 0.65014 0.293569
177 1 0.223296 0.937325 0.281991
568 2 0.121454 0.803404 0.246329
231 1 0.0258218 0.770176 0.272393
579 2 0.476653 0.984568 0.24142
134 1 0.326392 0.982634 0.255829
672 2 0.267108 0.807651 0.256734
103 1 0.420449 0.844063 0.254398
658 2 0.426733 0.956252 0.292144
605 2 0.689886 0.921819 0.237873
149 1 0.576401 0.809714 0.248095
131 1 0.651886 0.787392 0.285739
147 1 0.582381 0.927343 0.273335
679 2 0.728823 0.951265 0.288144
625 2 0.848278 0.871359 0.235785
655 2 0.779669 0.816305 0.269267
588 2 0.941453 0.913961 0.271782
185 1 0.232871 0.0982647 0.331103
687 2 0.0570146 0.0778568 0.337325
649 2 0.10337 0.197624 0.315992
680 2 0.105537 0.057608 0.300504
602 2 0.412211 0.0886827 0.32893
640 2 0.519123 0.180324 0.315789
627 2 0.749066 0.214131 0.330448
190 1 0.615735 0.075465 0.309796
678 2 0.539011 0.112243 0.349877
662 2 0.947265 0.167607 0.324661
189 1 0.770322 0.0644774 0.314121
630 2 0.998448 0.329586 0.305411
180 1 0.120341 0.322835 0.336273
130 1 0.158397 0.390766 0.303773
656 2 0.247039 0.427852 0.342127
629 2 0.0868586 0.490919 0.334729
145 1 0.247418 0.28293 0.321825
137 1 0.359917 0.433009 0.307049
657 2 0.403436 0.333686 0.337827
67 1 0.697864 0.495549 0.310569
637 2 0.562554 0.321269 0.302829
650 2 0.585848 0.453437 0.333338
686 2 0.564512 0.266146 0.341346
123 1 0.847281 0.271512 0.307731
158 1 0.902016 0.464212 0.327916
699 2 0.767092 0.373892 0.332901
691 2 0.106226 0.634002 0.322516
168 1 0.427188 0.537793 0.330057
146 1 0.406008 0.694746 0.320659
661 2 0.245761 0.559858 0.319445
720 2 0.253035 0.731777 0.330522
148 1 0.557736 0.548194 0.300324
195 1 0.653931 0.650582 0.310862
631 2 0.526116 0.651349 0.33756
700 2 0.962113 0.620335 0.336303
155 1 0.793116 0.631978 0.329953
178 1 0.160364 0.837467 0.309253
682 2 0.0247695 0.919241 0.301702
159 1 0.0609364 0.929659 0.340167
225 1 0.127544 0.779635 0.342582
197 1 0.27403 0.93488 0.321296
153 1 0.328059 0.832377 0.294596
163 1 0.369022 0.844835 0.344804
238 1 0.460372 0.959899 0.327821
719 2 0.667926 0.881017 0.319853
696 2 0.543066 0.840621 0.305339
724 2 0.553358 0.801998 0.339984
673 2 0.79506 0.764009 0.31355
175 1 0.955757 0.785777 0.330728
202 1 0.850353 0.911748 0.320588
676 2 0.806796 0.822643 0.35122
703 2 0.789622 0.977534 0.352606
179 1 0.132517 0.193118 0.357005
677 2 0.235688 0.0750136 0.368631
690 2 0.00120684 0.134727 0.372259
681 2 0.000197584 0.0729122 0.408459
181 1 0.14014 0.143657 0.398297
201 1 0.331102 0.199489 0.352823
706 2 0.397646 0.00628917 0.362523
188 1 0.289489 0.242429 0.388669
136 1 0.452293 0.155871 0.378959
182 1 0.325506 0.0436673 0.394821
187 1 0.547322 0.00490557 0.385288
698 2 0.660117 0.0661638 0.365932
716 2 0.731508 0.127892 0.400892
133 1 0.723448 0.25267 0.368707
749 2 0.84375 0.125565 0.356019
705 2 0.879543 0.0197689 0.38316
165 1 0.886251 0.180816 0.395599
584 2 0.140861 0.395268 0.373417
106 1 0.0679587 0.274835 0.385126
156 1 0.0877708 0.446436 0.406199
688 2 0.225185 0.487762 0.393237
167 1 0.312932 0.381031 0.37634
132 1 0.429333 0.475148 0.396366
669 2 0.42363 0.299876 0.403824
143 1 0.506565 0.402481 0.366533
643 2 0.679414 0.393119 0.365833
692 2 0.607722 0.434056 0.402368
193 1 0.582339 0.240277 0.380604
639 2 0.970764 0.386796 0.359844
664 2 0.859386 0.282168 0.353234
194 1 0.829231 0.423553 0.385909
710 2 0.926824 0.335007 0.405511
709 2 0.773273 0.292816 0.4024
207 1 0.174668 0.64875 0.370325
203 1 0.122546 0.655535 0.405242
196 1 0.0634562 0.556218 0.372382
220 1 0.316551 0.542579 0.364619
199 1 0.314794 0.637572 0.394132
645 2 0.379821 0.685373 0.358236
223 1 0.421573 0.726055 0.410577
171 1 0.514317 0.683046 0.378568
170 1 0.714328 0.551973 0.357408
237 1 0.573392 0.546603 0.37246
198 1 0.659137 0.729179 0.361911
644 2 0.680674 0.64374 0.390463
191 1 0.877509 0.544775 0.36598
674 2 0.860279 0.702897 0.371905
666 2 0.817873 0.66466 0.411158
737 2 0.961328 0.636817 0.393471
660 2 0.106037 0.0260999 0.375453
212 1 0.142212 0.797012 0.382322
236 1 0.213351 0.944977 0.402377
205 1 0.046701 0.904568 0.407172
646 2 0.216754 0.932084 0.355175
221 1 0.319824 0.776079 0.386889
725 2 0.425036 0.87991 0.38106
633 2 0.727508 0.959122 0.391298
229 1 0.61296 0.864291 0.399086
717 2 0.602808 0.904755 0.36065
654 2 0.892896 0.846233 0.386758
200 1 0.0134455 0.741155 0.363212
209 1 0.727106 0.782914 0.393792
211 1 0.0158667 0.211362 0.421754
321 1 0.114235 0.143161 0.440079
162 1 0.436984 0.154454 0.42296
213 1 0.276356 0.15362 0.420881
257 1 0.329967 0.0248219 0.438838
747 2 0.244773 0.110829 0.466786
234 1 0.582741 0.169874 0.438111
208 1 0.519529 0.0151337 0.458027
233 1 0.628457 0.992374 0.422029
718 2 0.734367 0.117344 0.438788
715 2 0.961716 0.11334 0.45267
689 2 0.854963 0.0465079 0.426043
736 2 0.174033 0.278426 0.415324
184 1 0.0610981 0.265106 0.463082
242 1 0.148275 0.383521 0.44177
265 1 0.283202 0.292315 0.451466
792 2 0.432958 0.25029 0.457357
713 2 0.35082 0.393234 0.42712
695 2 0.28713 0.442927 0.473896
218 1 0.423551 0.471867 0.451841
216 1 0.660268 0.473028 0.440232
714 2 0.51775 0.350369 0.433304
239 1 0.681049 0.308061 0.433343
739 2 0.722264 0.304393 0.469981
217 1 0.781245 0.487008 0.420351
659 2 0.86584 0.262398 0.439226
261 1 0.985575 0.372349 0.444392
240 1 0.820808 0.401208 0.452236
186 1 0.0642094 0.550802 0.436456
296 1 0.234209 0.508669 0.433691
745 2 0.24505 0.651497 0.443525
707 2 0.385864 0.589991 0.42854
766 2 0.353923 0.605117 0.47175
173 1 0.56543 0.717434 0.409475
255 1 0.589876 0.573569 0.46216
723 2 0.684247 0.634967 0.433508
779 2 0.533751 0.564449 0.42111
174 1 0.502885 0.720107 0.446707
693 2 0.011933 0.68286 0.467885
275 1 0.852638 0.563613 0.451588
246 1 0.840146 0.731331 0.450837
251 1 0.991695 0.971054 0.44014
284 1 0.198609 0.925779 0.442877
712 2 0.205507 0.785091 0.419957
222 1 0.997818 0.74554 0.420267
746 2 0.118479 0.740224 0.453055
702 2 0.458698 0.991314 0.416448
741 2 0.360863 0.871156 0.414869
708 2 0.356388 0.78611 0.446894
684 2 0.732268 0.943019 0.447791
232 1 0.52121 0.873405 0.445067
206 1 0.689363 0.814587 0.436937
755 2 0.943877 0.842345 0.456711
224 1 0.835187 0.864447 0.422602
763 2 0.123844 0.193044 0.496269
791 2 0.0805495 0.017837 0.471699
290 1 0.066328 0.0779222 0.520659
272 1 0.234652 0.179279 0.527586
235 1 0.312454 0.0752431 0.508771
738 2 0.431942 0.15761 0.486236
264 1 0.627986 0.116688 0.480781
309 1 0.500547 0.0442623 0.508741
734 2 0.705337 0.193018 0.510886
289 1 0.632141 0.0937775 0.53016
772 2 0.841076 0.00718697 0.471081
804 2 0.775159 0.0631672 0.529771
215 1 0.808818 0.179853 0.480336
729 2 0.934236 0.01907 0.529363
711 2 0.975215 0.144524 0.492569
759 2 0.863704 0.206008 0.518229
732 2 0.139577 0.407855 0.484395
740 2 0.0231137 0.357259 0.511668
249 1 0.452505 0.466971 0.496329
259 1 0.265865 0.374057 0.510775
269 1 0.278754 0.223227 0.492854
285 1 0.42608 0.311636 0.497324
204 1 0.567551 0.431154 0.467922
721 2 0.716813 0.37425 0.514442
219 1 0.557035 0.275154 0.478642
685 2 0.73868 0.469293 0.475515
767 2 0.906686 0.335672 0.478559
244 1 0.989834 0.491545 0.483615
260 1 0.892581 0.459896 0.513512
278 1 0.247295 0.694286 0.483363
762 2 0.170927 0.563282 0.468564
785 2 0.141407 0.583857 0.519448
701 2 0.100399 0.715696 0.499411
227 1 0.481562 0.656429 0.483879
752 2 0.339802 0.774548 0.508281
748 2 0.450509 0.599691 0.521708
258 1 0.29089 0.545513 0.502893
751 2 0.265869 0.65755 0.532158
727 2 0.633903 0.738889 0.467581
300 1 0.609952 0.54351 0.498677
314 1 0.735805 0.7346 0.502503
262 1 0.974106 0.610347 0.50879
722 2 0.762768 0.639534 0.47651
754 2 0.914448 0.73138 0.533207
230 1 0.781804 0.556555 0.510374
757 2 0.198043 0.969126 0.490595
735 2 0.21454 0.830982 0.472782
726 2 0.0652534 0.850712 0.480311
793 2 0.197497 0.808506 0.519568
799 2 0.132408 0.942897 0.524731
770 2 0.0141104 0.829712 0.515166
214 1 0.4424 0.859207 0.481793
210 1 0.313402 0.918304 0.514993
733 2 0.372127 0.999633 0.476274
731 2 0.470715 0.896932 0.519423
683 2 0.585734 0.915473 0.483822
753 2 0.534051 0.756917 0.508437
704 2 0.72625 0.980296 0.495788
774 2 0.769807 0.853443 0.475959
282 1 0.650883 0.85703 0.515186
663 2 0.908222 0.777428 0.48999
250 1 0.973809 0.963645 0.495116
668 2 0.824469 0.921324 0.518478
781 2 0.131146 0.102778 0.558102
294 1 0.0260658 0.225727 0.563675
287 1 0.245243 0.0302831 0.54625
243 1 0.993016 0.981496 0.561702
280 1 0.187607 0.0157117 0.587596
778 2 0.498594 0.155743 0.539068
742 2 0.371912 0.243512 0.531472
310 1 0.26014 0.153553 0.570016
263 1 0.39959 0.193008 0.566842
798 2 0.397555 0.018191 0.541996
348 1 0.540947 0.0597708 0.571202
809 2 0.711304 0.137016 0.56644
308 1 0.861578 0.170104 0.559309
277 1 0.88061 0.0563796 0.583746
192 1 0.00938025 0.464252 0.546196
315 1 0.171974 0.447352 0.532526
295 1 0.119143 0.242401 0.536738
349 1 0.0390988 0.36603 0.576526
298 1 0.157732 0.453881 0.568974
357 1 0.190328 0.326865 0.585173
728 2 0.260034 0.32398 0.548745
366 1 0.392456 0.452119 0.530159
764 2 0.360931 0.332468 0.588702
228 1 0.548343 0.439136 0.533471
270 1 0.576582 0.288216 0.534846
274 1 0.698494 0.438026 0.582257
761 2 0.745332 0.298346 0.544434
254 1 0.51829 0.368043 0.575621
311 1 0.638565 0.281899 0.571269
744 2 0.767753 0.443702 0.543729
765 2 0.91581 0.317841 0.537803
776 2 0.895719 0.408426 0.573434
320 1 0.800346 0.286922 0.578074
797 2 0.985794 0.515506 0.58609
811 2 0.156037 0.641322 0.566193
730 2 0.0847998 0.694425 0.540574
843 2 0.996019 0.712496 0.579332
266 1 0.436245 0.741573 0.541157
267 1 0.275829 0.528741 0.550925
299 1 0.399963 0.498921 0.574514
775 2 0.351428 0.646806 0.564274
694 2 0.656073 0.556398 0.54068
322 1 0.517184 0.618217 0.559829
273 1 0.686713 0.696054 0.584359
823 2 0.610569 0.708594 0.540102
790 2 0.889245 0.562318 0.544469
245 1 0.784554 0.679408 0.544826
795 2 0.843995 0.599266 0.584234
283 1 0.249544 0.764876 0.568232
256 1 0.136319 0.881586 0.575227
780 2 0.288507 0.901345 0.553574
372 1 0.458149 0.893456 0.564473
824 2 0.714913 0.98928 0.553596
279 1 0.581943 0.948535 0.542077
350 1 0.554929 0.768857 0.584573
326 1 0.612392 0.918686 0.581057
783 2 0.709676 0.83038 0.546036
789 2 0.850492 0.919171 0.555117
306 1 0.846234 0.747348 0.580557
865 2 0.00714837 0.84075 0.553855
281 1 0.0389602 0.0510611 0.593136
802 2 0.156013 0.0819129 0.633433
302 1 0.131563 0.183229 0.601005
871 2 0.0464136 0.207664 0.636766
832 2 0.378462 0.0212271 0.581122
319 1 0.468969 0.137102 0.599429
803 2 0.424412 0.0386379 0.633634
788 2 0.294523 0.129556 0.609349
758 2 0.648212 0.0609904 0.600743
376 1 0.53594 0.158662 0.631197
304 1 0.684885 0.0997365 0.637663
268 1 0.782264 0.170447 0.600067
784 2 0.975319 0.0709351 0.625008
301 1 0.823244 0.0363048 0.631264
286 1 0.959932 0.201369 0.599364
817 2 0.883429 0.188111 0.63551
782 2 0.117426 0.325225 0.616989
891 2 0.0563334 0.480596 0.616844
292 1 0.350993 0.269363 0.632456
293 1 0.422973 0.443862 0.617484
341 1 0.261349 0.397899 0.612874
794 2 0.502841 0.277659 0.607004
862 2 0.330402 0.508979 0.643744
769 2 0.589123 0.445747 0.61331
248 1 0.530739 0.361263 0.639332
328 1 0.646583 0.271117 0.610191
303 1 0.734852 0.462637 0.634224
845 2 0.815815 0.329147 0.6141
331 1 0.965485 0.351998 0.611825
313 1 0.833148 0.468987 0.605527
345 1 0.921734 0.437778 0.645843
825 2 0.112776 0.613783 0.604083
860 2 0.2161 0.620901 0.630773
821 2 0.0662209 0.641426 0.640478
288 1 0.383275 0.628264 0.612749
368 1 0.273947 0.54376 0.593339
743 2 0.349443 0.739271 0.640955
226 1 0.480093 0.570685 0.638356
241 1 0.556297 0.626232 0.59758
813 2 0.624521 0.605214 0.636942
343 1 0.495558 0.724309 0.629159
750 2 0.736717 0.602416 0.614672
271 1 0.899608 0.622286 0.634581
800 2 0.0929287 0.917292 0.618661
822 2 0.108334 0.760465 0.609206
850 2 0.059022 0.811154 0.642752
867 2 0.217043 0.893628 0.647539
796 2 0.269776 0.76034 0.609833
777 2 0.403729 0.756019 0.587783
760 2 0.286155 0.94057 0.610689
818 2 0.466469 0.897286 0.60544
374 1 0.569296 0.942896 0.633011
325 1 0.646594 0.818803 0.613592
297 1 0.767905 0.928599 0.60028
291 1 0.968442 0.907173 0.595633
808 2 0.961562 0.768467 0.614074
332 1 0.894931 0.908628 0.633997
826 2 0.803412 0.75439 0.615249
771 2 0.18885 0.248068 0.648297
807 2 0.117706 0.117116 0.673401
416 1 0.188725 0.23694 0.694379
346 1 0.247918 0.0444373 0.659143
787 2 0.326284 0.188379 0.665216
333 1 0.476511 0.240339 0.666323
874 2 0.394193 0.0523641 0.670518
316 1 0.284527 0.103777 0.697213
342 1 0.567908 0.199301 0.696575
353 1 0.684309 0.124037 0.680739
276 1 0.544957 0.0531537 0.660919
854 2 0.618406 0.0218469 0.699243
377 1 0.94003 0.0835767 0.699331
305 1 0.857685 0.0643808 0.66722
827 2 0.783091 0.215043 0.661093
365 1 0.929534 0.233959 0.675138
814 2 0.145438 0.43588 0.647354
861 2 0.0349447 0.337271 0.657302
424 1 0.133249 0.41915 0.694625
812 2 0.283673 0.358986 0.677316
834 2 0.446852 0.396052 0.671184
900 2 0.388012 0.344061 0.710303
335 1 0.640165 0.286204 0.656007
390 1 0.725761 0.312091 0.689995
859 2 0.554703 0.362883 0.694307
340 1 0.625867 0.463552 0.665036
387 1 0.962472 0.380573 0.684879
816 2 0.801485 0.364603 0.661433
839 2 0.813458 0.506775 0.675056
842 2 0.181297 0.731725 0.66203
836 2 0.185063 0.56546 0.665868
838 2 0.030147 0.500348 0.668763
855 2 0.0234129 0.51342 0.705637
829 2 0.0678368 0.6698 0.687752
253 1 0.356164 0.628235 0.668617
801 2 0.309247 0.520912 0.690838
768 2 0.506157 0.565401 0.672439
773 2 0.653591 0.621915 0.676852
872 2 0.497338 0.683513 0.709283
840 2 0.766427 0.627734 0.648922
355 1 0.91558 0.607453 0.679921
423 1 0.772124 0.620276 0.69959
864 2 0.898874 0.760732 0.657453
252 1 0.0327116 0.8042 0.68534
810 2 0.00958505 0.981969 0.656335
347 1 0.199227 0.749689 0.70028
863 2 0.132374 0.927936 0.678216
756 2 0.448943 0.909933 0.653585
815 2 0.336804 0.82482 0.674074
847 2 0.483263 0.74868 0.67384
317 1 0.279608 0.95217 0.689569
327 1 0.461921 0.930379 0.700446
324 1 0.650306 0.764484 0.651778
819 2 0.589195 0.906631 0.66975
358 1 0.754519 0.934929 0.678674
849 2 0.714736 0.919672 0.639326
334 1 0.742525 0.765263 0.682269
846 2 0.908192 0.918374 0.682605
379 1 0.90778 0.745871 0.696459
323 1 0.23055 0.137558 0.735589
879 2 0.0730092 0.0163322 0.752924
361 1 0.100748 0.0680067 0.718142
359 1 0.0829777 0.170831 0.74448
339 1 0.446374 0.123848 0.705874
408 1 0.369276 0.210807 0.737717
318 1 0.356733 0.0334237 0.732888
852 2 0.306167 0.0241841 0.768017
307 1 0.522339 0.132775 0.740521
837 2 0.68025 0.159756 0.72602
330 1 0.808934 0.0142956 0.712236
882 2 0.792184 0.0559466 0.747752
930 2 0.93119 0.0848795 0.734688
830 2 0.9507 0.243451 0.734006
853 2 0.819129 0.171758 0.70964
386 1 0.0430544 0.273457 0.703726
338 1 0.209826 0.337039 0.726689
835 2 0.243899 0.27078 0.758096
851 2 0.275356 0.481337 0.728006
828 2 0.268862 0.429573 0.766192
901 2 0.41009 0.492694 0.760252
449 1 0.660861 0.320633 0.729767
375 1 0.569874 0.449974 0.726572
385 1 0.703123 0.467195 0.703432
443 1 0.509735 0.288753 0.73225
422 1 0.706742 0.446128 0.76106
410 1 0.0143296 0.386662 0.729345
370 1 0.856545 0.351812 0.714118
460 1 0.812104 0.31167 0.748655
972 2 0.876779 0.502918 0.764465
848 2 0.0907537 0.534186 0.739249
896 2 0.193415 0.629549 0.723119
473 1 0.0375255 0.681832 0.723839
831 2 0.344703 0.662323 0.710654
362 1 0.323417 0.616638 0.753989
364 1 0.442377 0.520574 0.720051
367 1 0.426253 0.712169 0.743336
844 2 0.603223 0.581854 0.709995
360 1 0.554508 0.593043 0.748046
397 1 0.647973 0.73114 0.711569
898 2 0.767476 0.57916 0.747155
875 2 0.874642 0.498595 0.718762
384 1 0.878553 0.672791 0.726327
869 2 0.0245836 0.924565 0.710239
881 2 0.1126 0.816683 0.736992
820 2 0.22509 0.938703 0.729982
396 1 0.33347 0.819638 0.723781
909 2 0.475653 0.853069 0.735472
841 2 0.284534 0.755349 0.759618
897 2 0.381557 0.89128 0.767001
873 2 0.59397 0.871002 0.704822
430 1 0.615916 0.766844 0.749518
886 2 0.708515 0.917804 0.732229
337 1 0.574154 0.994113 0.734246
389 1 0.7853 0.80503 0.717994
398 1 0.966781 0.8024 0.738837
892 2 0.862761 0.904311 0.743496
413 1 0.141591 0.220037 0.813131
880 2 0.181931 0.109473 0.776529
921 2 0.0620139 0.0883982 0.802245
786 2 0.341316 0.196112 0.811747
369 1 0.476236 0.126328 0.808321
363 1 0.374949 0.160292 0.773561
924 2 0.463243 0.0378916 0.770489
354 1 0.614413 0.0419884 0.772483
884 2 0.71363 0.160677 0.769914
412 1 0.552856 0.203989 0.780011
429 1 0.702445 0.0988136 0.802403
895 2 0.841649 0.0635767 0.785898
990 2 0.97997 0.113077 0.769113
964 2 0.878551 0.0721573 0.823691
417 1 0.862273 0.21634 0.816928
329 1 0.884802 0.224719 0.776556
876 2 0.071717 0.279273 0.77939
393 1 0.140144 0.405562 0.814634
441 1 0.131764 0.422514 0.76702
476 1 0.253094 0.295383 0.790976
373 1 0.390601 0.324695 0.768967
984 2 0.478981 0.313077 0.798766
378 1 0.300844 0.414356 0.814669
910 2 0.448398 0.488697 0.806601
889 2 0.544645 0.392882 0.765033
462 1 0.687417 0.311975 0.77625
380 1 0.635565 0.274362 0.811204
883 2 0.695566 0.403964 0.814885
414 1 0.814654 0.358551 0.790108
893 2 0.991696 0.395648 0.773143
806 2 0.992349 0.336757 0.809781
351 1 0.955936 0.530282 0.806034
381 1 0.777941 0.514169 0.794125
312 1 0.182166 0.573901 0.773935
805 2 0.0669713 0.728057 0.763659
371 1 0.106747 0.562712 0.810128
344 1 0.0125457 0.711905 0.803066
912 2 0.0196943 0.571788 0.772873
877 2 0.175 0.709525 0.795937
857 2 0.299286 0.579609 0.81204
858 2 0.423328 0.608258 0.788193
935 2 0.608976 0.520758 0.782727
391 1 0.60882 0.677653 0.781581
919 2 0.747445 0.722553 0.818815
404 1 0.749138 0.734763 0.769282
411 1 0.898101 0.70126 0.762221
856 2 0.835258 0.657767 0.793555
833 2 0.187719 0.895708 0.764324
942 2 0.163532 0.982887 0.807579
420 1 0.102958 0.853866 0.794044
400 1 0.407061 0.754747 0.781839
941 2 0.276455 0.862116 0.795673
925 2 0.365475 0.980502 0.807065
382 1 0.494003 0.886812 0.795946
920 2 0.59085 0.985968 0.821702
421 1 0.645056 0.846342 0.787879
870 2 0.752014 0.959603 0.772886
352 1 0.974218 0.960083 0.777331
356 1 0.792262 0.927816 0.804831
899 2 0.86355 0.831769 0.779919
425 1 0.991857 0.932406 0.818198
916 2 0.138816 0.0766527 0.837002
457 1 0.998219 0.174448 0.831422
954 2 0.0420779 0.178911 0.873236
968 2 0.178233 0.18832 0.855798
928 2 0.336309 0.0778509 0.846334
434 1 0.441235 0.248806 0.838602
934 2 0.338901 0.207046 0.872376
949 2 0.525698 0.18128 0.883722
976 2 0.732521 0.0578194 0.846862
481 1 0.61312 0.163267 0.84398
868 2 0.585888 0.0161598 0.861012
453 1 0.942593 0.0756222 0.862284
435 1 0.889683 0.221063 0.85418
427 1 0.789089 0.130808 0.877618
932 2 0.249447 0.48396 0.847197
431 1 0.0655356 0.30677 0.841918
426 1 0.146921 0.360693 0.872283
388 1 0.258078 0.294085 0.839393
878 2 0.418215 0.499766 0.843715
418 1 0.321463 0.368502 0.868185
440 1 0.602504 0.332424 0.866838
953 2 0.716451 0.268264 0.846195
445 1 0.540723 0.41004 0.830223
975 2 0.705676 0.474925 0.855418
955 2 0.84518 0.423919 0.845997
966 2 0.991576 0.469723 0.842369
983 2 0.953946 0.323439 0.872195
911 2 0.0466425 0.674897 0.884083
890 2 0.154671 0.648563 0.839892
905 2 0.111488 0.513408 0.863922
915 2 0.465236 0.640922 0.823687
407 1 0.250296 0.759854 0.824649
940 2 0.430505 0.568693 0.874755
913 2 0.316658 0.654929 0.853099
937 2 0.492703 0.727066 0.855873
405 1 0.616669 0.576951 0.81792
887 2 0.626733 0.636953 0.857532
939 2 0.570402 0.506268 0.871941
944 2 0.992604 0.682249 0.844284
394 1 0.768489 0.726361 0.855721
933 2 0.815559 0.574829 0.834459
469 1 0.906124 0.666004 0.881896
395 1 0.931047 0.522587 0.87291
392 1 0.0609813 0.831655 0.835315
406 1 0.0461932 0.975904 0.855744
438 1 0.116807 0.81332 0.870147
956 2 0.196412 0.0154531 0.870979
383 1 0.394698 0.797235 0.830486
22 1 0.289413 0.809255 0.86935
401 1 0.450395 0.929412 0.848163
452 1 0.263524 0.93434 0.841086
917 2 0.593666 0.776324 0.824949
922 2 0.74623 0.850936 0.839414
336 1 0.620381 0.841209 0.859972
497 1 0.897092 0.775739 0.820956
885 2 0.935901 0.835755 0.861571
30 1 0.848803 0.956063 0.847701
995 2 0.172946 0.118037 0.902061
929 2 0.0841132 0.112288 0.935109
403 1 0.319543 0.0761245 0.900399
419 1 0.281076 0.197669 0.926746
493 1 0.472357 0.108097 0.918219
463 1 0.459969 0.042354 0.878065
950 2 0.719598 0.219097 0.926526
450 1 0.663167 0.108898 0.898384
500 1 0.737804 0.0199942 0.924403
466 1 0.547753 0.212362 0.939904
945 2 0.862717 0.135611 0.931244
451 1 0.948305 0.139671 0.899823
483 1 0.20389 0.252792 0.894982
996 2 0.0604067 0.278558 0.902748
47 1 0.0246437 0.372781 0.934199
906 2 0.184437 0.435926 0.908333
501 2 0.468005 0.417282 0.88554
32 1 0.433099 0.231017 0.907886
58 1 0.313345 0.365831 0.910654
499 1 0.731482 0.282693 0.890591
458 1 0.658646 0.41654 0.891859
888 2 0.755129 0.396684 0.924952