ITEM: TIMESTEP
3130
ITEM: NUMBER OF ATOMS
1000
ITEM: BOX BOUNDS pp pp pp
0.0000000000000000e+00 6.2996052494743662e+00
0.0000000000000000e+00 6.2996052494743662e+00
0.0000000000000000e+00 2.5198420997897465e+01
ITEM: ATOMS id type xs ys zs
502 2 0.0688559 0.0418754 0.0364512
11 1 0.107171 0.206339 0.0372092
951 2 0.169229 0.0995888 0.0103227
12 1 0.27808 0.0745021 0.0415397
58 1 0.533153 0.22538 0.0471743
522 2 0.4883 0.0643569 0.0281396
983 2 0.661651 0.150605 0.0323887
503 2 0.770194 0.0447033 0.0524838
504 2 0.662976 0.0282643 0.00444012
31 1 0.894403 0.11174 0.00456069
485 1 0.855601 0.175778 0.0429027
510 2 0.117674 0.39313 0.0490585
992 2 0.216998 0.415769 0.0179161
487 1 0.045939 0.315564 0.00743124
13 1 0.22389 0.277478 0.013758
518 2 0.368528 0.434683 0.0418498
512 2 0.32832 0.220452 0.0442457
489 1 0.448029 0.261788 0.00901608
484 1 0.697662 0.388348 0.00665361
33 1 0.553132 0.367289 0.0266443
514 2 0.641445 0.537607 0.00744044
977 2 0.971519 0.297666 0.0462195
985 2 0.743292 0.346295 0.046914
981 2 0.904103 0.435121 0.0266104
490 1 0.863802 0.309647 0.00265218
511 2 0.0429189 0.51479 0.0249281
540 2 0.170695 0.705798 0.0515611
545 2 0.202844 0.565779 0.0479181
70 1 0.0640746 0.68701 0.0193196
516 2 0.215506 0.573505 0.00584802
963 2 0.360266 0.463668 0.999355
18 1 0.356098 0.579437 0.0284179
519 2 0.513281 0.605664 0.0420157
524 2 0.689821 0.649067 0.0314199
4 1 0.568442 0.703111 0.00618586
15 1 0.76042 0.510456 0.0303975
45 1 0.832523 0.677835 0.0273351
10 1 0.872349 0.561926 0.0530008
100 1 0.933531 0.704595 0.0554738
544 2 0.148913 0.828781 0.0268038
525 2 0.190164 0.947298 0.0463797
75 1 0.0242049 0.896613 0.0493383
47 1 0.29191 0.75415 0.031459
3 1 0.449981 0.742866 0.0485414
27 1 0.355289 0.901274 0.0349358
997 2 0.434841 0.784152 0.0104817
9 1 0.566048 0.910173 0.0205097
976 2 0.817661 0.908486 0.994146
29 1 0.733955 0.830946 0.0344561
5 1 0.91892 0.979196 0.0277914
30 1 0.920072 0.821669 0.0254869
37 1 0.128973 0.0970061 0.0690613
51 1 0.15557 0.158882 0.106072
530 2 0.0257613 0.0723045 0.102588
526 2 0.413992 0.0377847 0.0623452
36 1 0.260476 0.993734 0.0835361
52 1 0.455493 0.0957908 0.108499
506 2 0.3664 0.182796 0.0847325
14 1 0.681826 0.236942 0.0668958
528 2 0.583037 0.207768 0.0981825
508 2 0.620052 0.0333105 0.0847476
59 1 0.714457 0.107681 0.10714
521 2 0.949162 0.0825253 0.0646913
529 2 0.82032 0.157711 0.0797658
35 1 1.00467 0.240497 0.0844768
7 1 0.179393 0.267702 0.0753326
56 1 0.231816 0.275217 0.118137
61 1 0.0666959 0.403493 0.112506
517 2 0.261536 0.409112 0.0820551
538 2 0.414326 0.303748 0.0672316
49 1 0.548585 0.450136 0.0604522
513 2 0.713242 0.438112 0.0880413
533 2 0.756769 0.30327 0.105114
559 2 0.543787 0.385762 0.0970435
509 2 0.837886 0.32969 0.075213
89 1 0.911342 0.441049 0.0971665
40 1 0.0304415 0.505003 0.063755
38 1 0.146168 0.544421 0.0925261
564 2 0.0469901 0.663235 0.0846322
23 1 0.434699 0.68992 0.0837009
42 1 0.25639 0.65085 0.0829537
537 2 0.317585 0.549154 0.102113
43 1 0.387265 0.547952 0.0688686
547 2 0.317502 0.709275 0.116991
50 1 0.707123 0.564877 0.0648074
998 2 0.55541 0.596438 0.0788633
539 2 0.690272 0.577469 0.101804
543 2 0.613157 0.747634 0.0994534
39 1 0.890657 0.589687 0.0908038
549 2 0.778039 0.729299 0.0704144
542 2 0.2189 0.858106 0.103102
55 1 0.093878 0.935819 0.0844416
550 2 0.310827 0.810173 0.07056
546 2 0.388096 0.90178 0.0936335
28 1 0.534822 0.932576 0.0552471
523 2 0.61056 0.75851 0.0534174
548 2 0.724677 0.869911 0.0789254
572 2 0.54397 0.887127 0.0935013
505 2 0.8581 0.88031 0.0567936
534 2 0.863433 0.0292779 0.0922404
69 1 0.959943 0.814219 0.0937574
551 2 0.227287 0.0791175 0.147354
555 2 0.0185578 0.146742 0.152108
532 2 0.294423 0.0917082 0.111884
552 2 0.421446 0.17888 0.144732
53 1 0.362259 0.0356942 0.16293
77 1 0.285366 0.216908 0.149659
527 2 0.58531 0.0233405 0.120838
54 1 0.573047 0.120143 0.152296
34 1 0.885906 0.243569 0.127907
80 1 0.885199 0.079738 0.134647
99 1 0.765038 0.166312 0.14874
65 1 0.0809399 0.262969 0.13117
86 1 0.0134478 0.407839 0.148795
531 2 0.219143 0.44698 0.126179
556 2 0.166616 0.343733 0.161152
63 1 0.389396 0.316793 0.110922
62 1 0.358107 0.3487 0.149263
557 2 0.499662 0.397749 0.168914
558 2 0.508176 0.315734 0.136455
562 2 0.480617 0.521316 0.132914
553 2 0.658972 0.276201 0.133341
88 1 0.641361 0.429701 0.124673
84 1 0.719564 0.368456 0.159171
60 1 0.870436 0.313279 0.163957
535 2 0.83068 0.383246 0.131116
41 1 0.183302 0.586518 0.144969
570 2 0.124921 0.701983 0.122307
66 1 0.0207657 0.583299 0.157275
541 2 0.155517 0.676339 0.181233
91 1 0.326145 0.515749 0.151304
536 2 0.398602 0.652014 0.149412
116 1 0.420038 0.551861 0.180345
68 1 0.568119 0.639128 0.123328
44 1 0.677533 0.748314 0.15545
563 2 0.693129 0.558702 0.149264
93 1 0.513137 0.766816 0.152385
560 2 0.99613 0.574878 0.119743
565 2 0.8765 0.70647 0.116301
90 1 0.8454 0.519972 0.157613
64 1 0.801247 0.539097 0.125604
26 1 0.169445 0.0052125 0.123049
71 1 0.0921171 0.792103 0.161652
571 2 0.323648 0.942242 0.125132
48 1 0.468358 0.78355 0.114899
567 2 0.394349 0.854273 0.149509
72 1 0.247482 0.749661 0.149426
97 1 0.215427 0.912247 0.157596
73 1 0.618077 0.883643 0.129901
98 1 0.514655 0.97495 0.153056
569 2 0.615473 0.903537 0.172751
78 1 0.685818 0.0139497 0.148915
573 2 0.777956 0.958874 0.11632
574 2 0.945183 0.928538 0.118415
76 1 0.0101905 0.982444 0.149291
74 1 0.776177 0.809624 0.124719
575 2 0.956052 0.785668 0.144436
125 1 0.765467 0.85537 0.173294
600 2 0.843813 0.982354 0.160005
576 2 0.172151 0.18015 0.173921
106 1 0.0723099 0.209928 0.215246
82 1 0.255794 0.017522 0.19217
605 2 0.000582958 0.0802635 0.192658
601 2 0.105143 0.00751083 0.225379
83 1 0.399181 0.12064 0.193557
581 2 0.277703 0.29608 0.210478
602 2 0.371912 0.0101451 0.226593
577 2 0.534968 0.0528691 0.187147
554 2 0.593259 0.246252 0.179331
578 2 0.562587 0.161828 0.213534
104 1 0.759583 0.111508 0.219215
604 2 0.929488 0.210009 0.203436
598 2 0.879884 0.147226 0.169931
599 2 0.8686 0.988545 0.217142
610 2 0.107953 0.370819 0.208309
611 2 0.222615 0.416734 0.236895
561 2 0.309123 0.441329 0.194903
57 1 0.404935 0.271653 0.186027
92 1 0.63066 0.458433 0.181119
109 1 0.68709 0.287583 0.211718
112 1 0.532503 0.333818 0.204283
579 2 0.785136 0.228991 0.188078
94 1 0.814313 0.415636 0.20098
85 1 0.980997 0.468711 0.190513
584 2 0.895126 0.516235 0.224277
585 2 0.954432 0.375769 0.221765
81 1 0.0217128 0.293878 0.175975
590 2 0.151358 0.482631 0.174779
595 2 0.124479 0.712272 0.222663
96 1 0.981683 0.720733 0.182285
121 1 0.958039 0.712972 0.223403
615 2 0.0876977 0.556577 0.206641
607 2 0.356973 0.5111 0.23195
591 2 0.288178 0.628418 0.189244
592 2 0.430272 0.639993 0.210787
122 1 0.305 0.716337 0.219957
586 2 0.529394 0.528922 0.213586
589 2 0.70723 0.562348 0.200899
113 1 0.592231 0.686943 0.22368
587 2 0.561262 0.631838 0.174792
614 2 0.718111 0.727838 0.20323
588 2 0.88823 0.587737 0.190859
95 1 0.792988 0.665995 0.16429
120 1 0.865616 0.782162 0.199871
566 2 0.225483 0.809354 0.194268
596 2 0.0770072 0.863405 0.210553
101 1 0.10262 0.953232 0.180576
102 1 0.241749 0.908804 0.226987
67 1 0.39663 0.755156 0.183284
597 2 0.438236 0.924769 0.184243
622 2 0.372711 0.849903 0.21478
568 2 0.526725 0.819509 0.20248
593 2 0.663503 0.912853 0.213787
79 1 0.710666 0.0339 0.183997
103 1 0.516644 0.956411 0.222188
580 2 0.928828 0.913602 0.188261
105 1 0.90813 0.858709 0.228506
582 2 0.238384 0.0910954 0.230246
606 2 0.0794633 0.132139 0.25234
137 1 0.198482 0.257603 0.24595
152 1 0.176419 0.0264463 0.268023
107 1 0.307148 0.988106 0.257062
108 1 0.364687 0.173381 0.231657
603 2 0.488627 0.0967809 0.250962
132 1 0.246339 0.244533 0.29
128 1 0.34432 0.149584 0.272039
647 2 0.435582 0.0204217 0.28054
124 1 0.772556 0.0242773 0.249676
134 1 0.642991 0.160693 0.254168
130 1 0.736073 0.0253004 0.290563
129 1 0.564577 0.104405 0.290117
110 1 0.926784 0.12962 0.234044
150 1 0.904014 0.0630607 0.277731
135 1 0.806691 0.17835 0.270066
136 1 0.152182 0.384627 0.277077
140 1 0.0454973 0.47134 0.245257
87 1 0.39023 0.368509 0.225457
608 2 0.489396 0.403394 0.273105
612 2 0.325783 0.463755 0.267208
632 2 0.355996 0.303657 0.256044
583 2 0.493441 0.241783 0.242261
139 1 0.587786 0.410381 0.235865
119 1 0.655662 0.492918 0.280323
634 2 0.608503 0.309855 0.283523
609 2 0.815874 0.264232 0.231969
639 2 0.757997 0.416301 0.244146
145 1 0.905436 0.386828 0.261984
126 1 0.944021 0.237783 0.262445
635 2 0.768296 0.338045 0.281637
111 1 0.195559 0.58688 0.230549
616 2 0.180417 0.709268 0.25881
617 2 0.150489 0.555379 0.272961
641 2 0.06161 0.694765 0.291761
642 2 0.233175 0.671759 0.293975
117 1 0.330313 0.641476 0.258349
613 2 0.464573 0.540877 0.260177
148 1 0.465837 0.716349 0.277887
114 1 0.603221 0.581536 0.254099
618 2 0.662071 0.717311 0.257266
141 1 0.996404 0.585118 0.260274
115 1 0.752106 0.608553 0.234263
166 1 0.855188 0.543641 0.265894
619 2 0.757224 0.64237 0.284614
146 1 0.866461 0.704973 0.2584
621 2 0.134245 0.899016 0.255229
625 2 0.996741 0.761536 0.255041
650 2 0.991661 0.987062 0.249412
172 1 0.163715 0.824455 0.287328
127 1 0.445799 0.907869 0.253301
118 1 0.464349 0.760011 0.237039
147 1 0.286574 0.82566 0.261791
594 2 0.753138 0.854479 0.242508
123 1 0.585073 0.853923 0.24717
623 2 0.606233 0.998065 0.257549
624 2 0.574528 0.818031 0.283409
649 2 0.872441 0.897848 0.267624
626 2 0.0537566 0.0412323 0.290428
157 1 0.205524 0.10356 0.304513
651 2 0.121697 0.179954 0.33742
652 2 0.228035 0.0591932 0.350047
133 1 0.482032 0.229102 0.295045
153 1 0.350127 0.948309 0.34781
158 1 0.346971 0.171631 0.318534
628 2 0.49894 0.108265 0.326351
629 2 0.675679 0.0908058 0.331553
164 1 0.633697 0.239139 0.34172
160 1 0.681467 0.18461 0.298322
630 2 0.848558 0.129227 0.307171
131 1 0.986809 0.194648 0.31968
151 1 0.997807 0.0437999 0.329958
155 1 0.903111 0.94382 0.305471
655 2 0.774137 0.157894 0.353373
180 1 0.808134 0.0125468 0.3443
631 2 0.115429 0.475202 0.326192
637 2 0.0939529 0.195709 0.288797
156 1 0.0549281 0.326229 0.335761
657 2 0.220285 0.327858 0.317583
138 1 0.459217 0.477539 0.318078
162 1 0.242573 0.476148 0.29989
163 1 0.387972 0.352323 0.295337
658 2 0.452451 0.245306 0.348332
188 1 0.366897 0.371891 0.338809
633 2 0.538889 0.358705 0.317151
169 1 0.710101 0.360799 0.325075
638 2 0.628002 0.493368 0.323034
640 2 0.988587 0.377553 0.295512
165 1 0.840485 0.28643 0.312116
161 1 0.972347 0.486283 0.328416
660 2 0.920425 0.294544 0.345956
665 2 0.805357 0.473608 0.30115
185 1 0.837364 0.43568 0.351814
167 1 0.13287 0.625276 0.318072
636 2 0.0293271 0.542278 0.295906
661 2 0.025519 0.576055 0.354605
667 2 0.260396 0.683023 0.344201
142 1 0.362718 0.615104 0.298962
168 1 0.392015 0.611846 0.338733
662 2 0.250285 0.50962 0.340889
672 2 0.345157 0.757588 0.309726
143 1 0.519441 0.588703 0.295039
144 1 0.636127 0.680315 0.299779
173 1 0.513562 0.737635 0.320155
170 1 0.603695 0.660553 0.348872
620 2 0.910969 0.629492 0.295732
171 1 0.976153 0.740426 0.324752
195 1 0.750447 0.734267 0.322947
645 2 0.749809 0.577314 0.321273
666 2 0.893146 0.615915 0.335327
671 2 0.164922 0.957578 0.321804
197 1 0.115638 0.810783 0.321098
627 2 0.281664 0.916684 0.297412
648 2 0.434625 0.878749 0.297535
177 1 0.267672 0.837731 0.333762
198 1 0.448963 0.825913 0.344909
149 1 0.625502 0.834813 0.327469
644 2 0.724192 0.809094 0.287351
154 1 0.565078 0.958431 0.307259
646 2 0.870737 0.792009 0.297169
196 1 0.00229749 0.901437 0.334766
670 2 0.761803 0.895991 0.326476
175 1 0.0251529 0.879352 0.284846
176 1 0.0861289 0.0517074 0.361793
677 2 0.159777 0.154295 0.380387
681 2 0.0180252 0.0922482 0.399902
653 2 0.423808 0.0848095 0.364366
183 1 0.298855 0.231705 0.355856
208 1 0.399173 0.189125 0.401804
178 1 0.298729 0.0956795 0.382345
159 1 0.544658 0.217643 0.375583
654 2 0.680219 0.0974558 0.380811
679 2 0.757379 0.22451 0.388875
179 1 0.53357 0.0824706 0.386457
680 2 0.948837 0.134179 0.362111
699 2 0.838296 0.0592468 0.389523
206 1 0.893054 0.140989 0.418492
182 1 0.106692 0.286643 0.373016
187 1 0.227453 0.360578 0.357698
212 1 0.108919 0.432837 0.401524
682 2 0.298308 0.311266 0.393902
683 2 0.462698 0.321857 0.397402
687 2 0.243953 0.473058 0.384619
688 2 0.391768 0.464958 0.373677
663 2 0.56216 0.40104 0.35185
190 1 0.718449 0.334607 0.360931
664 2 0.703279 0.521473 0.358822
184 1 0.632051 0.356538 0.390356
656 2 0.997714 0.381887 0.372379
659 2 0.820279 0.416119 0.392126
181 1 0.961288 0.26091 0.389442
192 1 0.11086 0.711644 0.352627
686 2 0.00739554 0.563143 0.392335
691 2 0.0296991 0.709461 0.397564
217 1 0.154124 0.595087 0.377502
717 2 0.198788 0.708081 0.404573
193 1 0.502622 0.714325 0.370784
692 2 0.316595 0.644166 0.378153
218 1 0.456788 0.598806 0.399419
643 2 0.530482 0.540699 0.354279
189 1 0.57524 0.504472 0.388246
693 2 0.515575 0.76872 0.405198
194 1 0.692448 0.749262 0.398794
186 1 0.875903 0.556789 0.372826
669 2 0.766636 0.710991 0.360675
191 1 0.962973 0.708593 0.363785
690 2 0.731078 0.582349 0.388538
200 1 0.842733 0.696269 0.39927
676 2 0.218473 0.952095 0.378139
696 2 0.0525019 0.854747 0.366279
201 1 0.149784 0.0211261 0.415747
222 1 0.206649 0.796905 0.370409
697 2 0.277067 0.835383 0.405545
698 2 0.462586 0.919775 0.376432
223 1 0.378875 0.772789 0.382896
673 2 0.551841 0.968505 0.351876
174 1 0.715463 0.952956 0.372796
668 2 0.608239 0.812698 0.368561
204 1 0.616512 0.930106 0.401168
199 1 0.825774 0.872723 0.396197
674 2 0.893637 0.84082 0.356115
675 2 0.95021 0.977867 0.373433
221 1 0.961733 0.840356 0.402094
202 1 0.210206 0.0432241 0.454901
207 1 0.250218 0.177182 0.415239
232 1 0.230276 0.210829 0.458211
701 2 0.031131 0.995029 0.465869
706 2 0.104025 0.148957 0.435801
203 1 0.322806 0.0306161 0.419173
703 2 0.460999 0.0629048 0.418139
708 2 0.37732 0.117045 0.450021
678 2 0.571327 0.177611 0.41658
209 1 0.725266 0.207375 0.429758
704 2 0.514441 0.163985 0.459131
229 1 0.592689 0.0198926 0.436231
230 1 0.68093 0.143809 0.47718
700 2 0.951599 0.00127318 0.428977
231 1 0.0039183 0.151255 0.465277
205 1 0.730937 0.055291 0.418507
705 2 0.830226 0.0922325 0.450077
236 1 0.100904 0.273704 0.463499
237 1 0.163146 0.308895 0.41825
711 2 0.0615144 0.418913 0.439139
712 2 0.212267 0.44018 0.431765
213 1 0.366902 0.435894 0.412771
233 1 0.36533 0.276309 0.47273
238 1 0.370532 0.463324 0.456856
707 2 0.299179 0.307844 0.436717
214 1 0.452084 0.270486 0.434631
684 2 0.513853 0.440654 0.426145
709 2 0.760991 0.365198 0.446085
215 1 0.654922 0.457082 0.419835
714 2 0.622025 0.476541 0.455793
234 1 0.607564 0.303405 0.438821
210 1 0.86608 0.304272 0.414674
211 1 0.963745 0.423603 0.411974
685 2 0.823092 0.486908 0.427988
235 1 0.876478 0.225816 0.449122
240 1 0.801146 0.508393 0.468464
710 2 1.0044 0.259421 0.425203
715 2 0.918663 0.368237 0.45037
695 2 0.132354 0.602486 0.422749
242 1 0.186006 0.542902 0.46197
741 2 0.242631 0.79001 0.447635
720 2 0.0402974 0.728444 0.434147
246 1 0.122219 0.671745 0.460609
718 2 0.367118 0.732397 0.421495
716 2 0.295453 0.571499 0.412123
713 2 0.442793 0.590839 0.436174
243 1 0.309185 0.623837 0.452436
689 2 0.607551 0.599786 0.416831
694 2 0.748451 0.638708 0.427373
219 1 0.671161 0.617884 0.461179
244 1 0.5273 0.684247 0.452143
216 1 0.934505 0.619091 0.423272
241 1 0.965974 0.550813 0.456956
220 1 0.840837 0.652268 0.45514
247 1 0.108268 0.844727 0.404259
721 2 0.150378 0.906569 0.443795
725 2 0.996432 0.863551 0.446383
746 2 0.103521 0.823185 0.478722
702 2 0.328783 0.937212 0.473413
248 1 0.412841 0.820336 0.461513
722 2 0.327157 0.900087 0.43873
723 2 0.461922 0.887791 0.415944
748 2 0.481738 0.942538 0.451987
224 1 0.592536 0.827919 0.435605
719 2 0.725481 0.785073 0.45458
724 2 0.727655 0.895426 0.425221
249 1 0.586574 0.849588 0.470012
749 2 0.702821 0.00241636 0.460452
225 1 0.867154 0.795026 0.431459
250 1 0.837718 0.923895 0.453883
227 1 0.221022 0.0139053 0.495776
726 2 0.14856 0.137311 0.485528
252 1 0.235719 0.112222 0.526314
251 1 0.0839939 0.956407 0.501197
276 1 0.0824784 0.0916383 0.520456
228 1 0.436918 0.0506923 0.486461
727 2 0.302216 0.144916 0.491584
752 2 0.39065 0.0752344 0.523092
728 2 0.472052 0.211032 0.500868
254 1 0.570456 1.00001 0.489796
729 2 0.611927 0.115463 0.516348
255 1 0.71862 0.0303487 0.500158
730 2 0.852043 0.185066 0.484561
755 2 0.914157 0.110988 0.513707
754 2 0.740933 0.199275 0.515684
257 1 0.234096 0.2798 0.500642
731 2 0.0813847 0.278001 0.503942
736 2 0.059451 0.444923 0.478453
732 2 0.238751 0.400342 0.469923
261 1 0.144616 0.393454 0.520268
239 1 0.483973 0.341922 0.468902
733 2 0.367416 0.384838 0.499596
259 1 0.628415 0.277588 0.493334
734 2 0.764259 0.285426 0.476135
739 2 0.612388 0.427142 0.489249
264 1 0.758954 0.361853 0.512918
763 2 0.510483 0.426534 0.51225
764 2 0.676457 0.48629 0.528568
735 2 0.969607 0.294189 0.479307
260 1 0.887141 0.291112 0.513512
265 1 0.91193 0.435017 0.495373
267 1 0.113102 0.663831 0.511149
266 1 0.0244656 0.531252 0.510233
262 1 0.17773 0.519286 0.50377
737 2 0.342451 0.538225 0.49225
742 2 0.396301 0.682415 0.486501
738 2 0.486844 0.552731 0.480297
272 1 0.233024 0.651942 0.48453
268 1 0.495533 0.650723 0.523701
743 2 0.54846 0.727213 0.494346
269 1 0.631998 0.595804 0.498093
744 2 0.774854 0.683429 0.488823
769 2 0.646721 0.703612 0.528772
245 1 0.771019 0.51252 0.501265
270 1 0.782862 0.657888 0.523924
740 2 0.890506 0.594188 0.492368
745 2 0.981633 0.702384 0.4896
271 1 0.0604081 0.808849 0.511433
771 2 0.186798 0.968627 0.537729
253 1 0.458043 0.895094 0.49721
273 1 0.408046 0.781243 0.518362
747 2 0.254642 0.842271 0.488156
772 2 0.322695 0.910321 0.521836
793 2 0.253704 0.770195 0.518828
274 1 0.590617 0.865029 0.520133
774 2 0.711891 0.84608 0.494714
226 1 0.85355 0.0357818 0.481368
275 1 0.842813 0.801967 0.482872
750 2 0.937856 0.909563 0.486994
296 1 0.895232 0.79612 0.521107
775 2 0.923588 0.949371 0.5219
277 1 0.104762 0.0306633 0.566984
256 1 0.0133706 0.242472 0.541262
776 2 0.0675349 0.181763 0.575112
258 1 0.336051 0.241571 0.532165
282 1 0.262994 0.139182 0.562893
283 1 0.401516 0.231646 0.582334
753 2 0.51813 0.994094 0.531989
303 1 0.409722 0.0414545 0.566931
778 2 0.502134 0.145594 0.549577
279 1 0.669098 1.00091 0.543092
308 1 0.568546 0.114984 0.586564
309 1 0.689128 0.148386 0.559739
285 1 0.750257 -0.00245629 0.588446
780 2 0.953463 0.0613089 0.549789
799 2 0.793936 0.0875714 0.541847
310 1 0.826317 0.139045 0.579318
751 2 0.170427 0.253741 0.541342
761 2 0.145788 0.486012 0.556616
756 2 0.0732652 0.352835 0.567044
263 1 0.401163 0.522943 0.527624
758 2 0.480517 0.287878 0.534529
288 1 0.409427 0.368254 0.563016
757 2 0.284793 0.38005 0.537939
782 2 0.256291 0.338873 0.578047
284 1 0.629809 0.263401 0.535443
289 1 0.566433 0.441998 0.552701
290 1 0.706698 0.37434 0.552339
783 2 0.588226 0.258799 0.575082
314 1 0.644265 0.397076 0.586482
281 1 0.94512 0.2454 0.582946
760 2 0.993211 0.401134 0.531295
759 2 0.8213 0.268204 0.547555
765 2 0.850121 0.450273 0.533891
291 1 0.985064 0.474645 0.563448
785 2 0.865593 0.399075 0.570644
292 1 0.177968 0.62242 0.576221
766 2 0.064276 0.601907 0.543969
767 2 0.21949 0.605399 0.536344
298 1 0.124836 0.757432 0.5421
762 2 0.296779 0.504881 0.55812
293 1 0.370345 0.651953 0.549987
788 2 0.451689 0.520807 0.563473
319 1 0.482455 0.663373 0.57571
322 1 0.275548 0.780649 0.560848
294 1 0.606748 0.58961 0.551966
794 2 0.6515 0.706122 0.572262
770 2 0.918954 0.583168 0.538764
297 1 0.974613 0.721124 0.562188
789 2 0.762069 0.551919 0.561469
796 2 0.988341 0.893013 0.551306
797 2 0.0941727 0.762154 0.592525
798 2 0.14139 0.88701 0.564454
773 2 0.420455 0.882377 0.556349
278 1 0.288961 0.962056 0.569285
323 1 0.397715 0.801855 0.590559
768 2 0.532709 0.758353 0.54989
299 1 0.664407 0.851333 0.559818
779 2 0.551781 0.96891 0.573611
324 1 0.575046 0.8286 0.590113
325 1 0.787562 0.829295 0.582355
295 1 0.814812 0.699514 0.561203
300 1 0.773111 0.880615 0.529467
800 2 0.866593 0.932057 0.567784
331 1 0.0598764 0.18672 0.624662
302 1 0.222123 0.0599591 0.598051
802 2 0.228524 0.185368 0.632366
301 1 0.00687735 0.0757168 0.600895
327 1 0.1503 0.0563931 0.635955
777 2 0.377864 0.0982535 0.611122
304 1 0.568519 0.067736 0.625066
804 2 0.719619 0.128736 0.609124
849 2 0.647638 0.0836207 0.658498
809 2 0.631866 0.263113 0.624447
306 1 0.864211 0.111514 0.621643
280 1 0.77214 0.996035 0.627165
326 1 0.991162 0.0473053 0.638803
335 1 0.764761 0.209008 0.644669
801 2 0.136716 0.294558 0.650841
287 1 0.0870319 0.494646 0.596578
781 2 0.197922 0.218607 0.595822
786 2 0.11919 0.439836 0.653689
312 1 0.215992 0.406629 0.621188
286 1 0.117931 0.335877 0.606225
307 1 0.331726 0.2935 0.611773
808 2 0.496191 0.195254 0.612099
313 1 0.446067 0.390455 0.600162
787 2 0.303794 0.470445 0.597438
837 2 0.396562 0.431497 0.648855
784 2 0.729939 0.271141 0.591029
315 1 0.771249 0.49222 0.596284
339 1 0.617152 0.415277 0.629479
810 2 0.854508 0.301945 0.618629
311 1 0.947334 0.474751 0.608854
806 2 0.992196 0.371393 0.632717
340 1 0.756603 0.390738 0.63761
840 2 0.931844 0.4934 0.649678
791 2 0.0214532 0.634258 0.594405
317 1 0.188934 0.548132 0.619959
316 1 0.0443505 0.535501 0.633083
342 1 0.0939323 0.673695 0.627936
792 2 0.347501 0.614341 0.589209
318 1 0.308996 0.559091 0.643474
818 2 0.385263 0.671258 0.620802
817 2 0.233161 0.682613 0.609756
842 2 0.283432 0.720397 0.649474
338 1 0.466339 0.550158 0.627101
814 2 0.658093 0.548989 0.625618
813 2 0.555925 0.554762 0.595213
819 2 0.573689 0.702709 0.606768
320 1 0.748221 0.681944 0.603687
345 1 0.7111 0.714202 0.650843
795 2 0.946697 0.806701 0.593241
790 2 0.882058 0.597507 0.585212
815 2 0.817086 0.553863 0.632412
816 2 0.904357 0.662428 0.62844
821 2 0.0873704 0.934454 0.599071
347 1 0.15531 0.827078 0.622318
346 1 0.999461 0.806797 0.632634
822 2 0.248041 0.83518 0.595231
823 2 0.442259 0.962648 0.603061
328 1 0.294798 0.979653 0.627497
348 1 0.344889 0.834389 0.627848
329 1 0.441671 0.986484 0.640384
824 2 0.619466 0.935948 0.609562
349 1 0.669583 0.801002 0.623832
843 2 0.510629 0.843912 0.637201
820 2 0.82159 0.823225 0.625563
321 1 0.912669 0.949057 0.603699
332 1 0.208535 0.144013 0.674595
357 1 0.0671147 0.12883 0.668866
851 2 0.147463 0.230905 0.702211
852 2 0.138923 0.0509744 0.701074
351 1 0.00868635 0.144914 0.707535
803 2 0.352622 0.119109 0.649261
827 2 0.281147 0.0193914 0.671663
334 1 0.51794 0.165423 0.656359
358 1 0.405925 0.105075 0.697016
829 2 0.552358 0.201044 0.690138
330 1 0.727889 0.135844 0.692177
355 1 0.546392 0.0418016 0.706376
826 2 0.912312 0.186265 0.651304
305 1 0.82204 0.0590541 0.662702
850 2 0.890473 0.0487204 0.703489
356 1 0.858962 0.212414 0.689489
805 2 0.00536635 0.268799 0.672426
337 1 -0.000448343 0.452685 0.682766
831 2 0.172771 0.370718 0.691232
807 2 0.259454 0.393404 0.660536
333 1 0.371917 0.264948 0.656078
832 2 0.309993 0.234897 0.68675
363 1 0.306026 0.380361 0.704965
364 1 0.425187 0.317683 0.691768
833 2 0.512886 0.328191 0.655659
834 2 0.564812 0.460693 0.66692
835 2 0.673144 0.292159 0.665196
359 1 0.621521 0.334172 0.704734
336 1 0.865362 0.344408 0.665618
361 1 0.886805 0.374514 0.70788
365 1 0.744575 0.407856 0.689614
811 2 0.0192453 0.649185 0.662984
812 2 0.161301 0.599155 0.660054
836 2 0.126836 0.760085 0.661829
362 1 0.122249 0.537452 0.692771
838 2 0.428364 0.587693 0.668849
862 2 0.267468 0.695292 0.689076
368 1 0.269387 0.541311 0.681217
839 2 0.712621 0.552043 0.667624
344 1 0.573869 0.669049 0.651901
864 2 0.638584 0.506991 0.698215
369 1 0.513202 0.647517 0.702026
370 1 0.677957 0.679251 0.688473
341 1 0.862846 0.718243 0.666356
861 2 0.973346 0.662192 0.70137
366 1 0.860075 0.560125 0.679472
846 2 0.0756429 0.933847 0.646519
847 2 0.266555 0.880617 0.663314
372 1 0.125791 0.916963 0.683238
828 2 0.392779 0.951974 0.689175
343 1 0.43082 0.725246 0.657983
848 2 0.411903 0.775843 0.692139
872 2 0.261779 0.935801 0.709125
844 2 0.597256 0.801522 0.668846
350 1 0.732986 0.90532 0.655581
374 1 0.571492 0.956263 0.672988
375 1 0.705415 0.987937 0.696179
841 2 0.975061 0.830515 0.668766
825 2 0.888512 0.930604 0.648793
845 2 0.789994 0.825053 0.685281
352 1 0.998009 0.974951 0.688576
875 2 0.889151 0.891148 0.714031
377 1 0.173952 0.0135649 0.741282
881 2 0.160767 0.19911 0.739931
900 2 0.972301 0.101455 0.745009
353 1 0.276809 0.0909473 0.713338
858 2 0.346901 0.232821 0.726033
383 1 0.320649 0.122297 0.75479
354 1 0.525695 0.114745 0.740261
855 2 0.69195 0.119225 0.731655
830 2 0.856517 0.170621 0.726673
879 2 0.793129 0.0957316 0.764213
856 2 0.199499 0.357028 0.729814
386 1 0.0681208 0.408848 0.719879
885 2 0.0346939 0.518027 0.755014
411 1 0.0916667 0.36418 0.756488
857 2 0.339002 0.359394 0.749658
863 2 0.415465 0.485136 0.721
882 2 0.440241 0.228109 0.761706
854 2 0.62249 0.29911 0.754004
859 2 0.721622 0.403605 0.735551
389 1 0.474024 0.334645 0.729596
889 2 0.565933 0.491094 0.743065
381 1 0.00789236 0.269225 0.738836
360 1 0.762542 0.273374 0.714567
385 1 0.831759 0.25964 0.759433
384 1 0.870237 0.423034 0.743607
367 1 0.13459 0.773712 0.702971
886 2 0.115072 0.615287 0.721478
866 2 0.112309 0.696127 0.757378
392 1 0.232786 0.606192 0.768474
867 2 0.237492 0.683859 0.730962
387 1 0.243588 0.530917 0.724155
393 1 0.372525 0.653691 0.71838
893 2 0.361707 0.672601 0.7572
394 1 0.690746 0.573195 0.743437
868 2 0.633075 0.721479 0.72476
892 2 0.497769 0.620902 0.738127
399 1 0.669817 0.684271 0.772255
860 2 0.971649 0.527379 0.715641
865 2 0.921465 0.636025 0.741741
391 1 0.759392 0.737592 0.745468
870 2 0.829019 0.706998 0.706777
390 1 0.813145 0.549512 0.719231
890 2 0.83085 0.546942 0.765843
871 2 0.0107099 0.967887 0.730544
398 1 0.146205 0.864245 0.731697
397 1 0.249643 0.771056 0.770517
382 1 0.3093 0.952578 0.761684
373 1 0.323806 0.802193 0.732895
898 2 0.483532 0.774554 0.736789
873 2 0.393829 0.00903372 0.737154
869 2 0.739577 0.840202 0.717888
874 2 0.51502 0.873089 0.702787
379 1 0.561904 0.967404 0.745863
400 1 0.622604 0.823258 0.751496
371 1 0.993162 0.780856 0.727816
376 1 0.880329 0.982754 0.751525
380 1 0.731611 0.978931 0.735955
396 1 0.878631 0.845749 0.759477
876 2 0.0457583 0.0145276 0.770867
880 2 0.079714 0.188007 0.77233
402 1 0.222156 0.104939 0.782625
906 2 0.146546 0.167595 0.828074
922 2 0.0771855 0.0468702 0.807904
877 2 0.358997 0.155659 0.795158
378 1 0.445798 0.0482964 0.77142
853 2 0.656926 0.116581 0.775077
878 2 0.534409 0.125483 0.805739
909 2 0.711639 0.235971 0.791684
904 2 0.767355 0.0667119 0.802947
934 2 0.634274 0.286297 0.826834
405 1 0.912758 0.994195 0.797392
435 1 0.935708 0.163898 0.777566
924 2 0.770219 0.195315 0.826277
406 1 0.21933 0.461396 0.759602
416 1 0.0422053 0.458609 0.801049
407 1 0.222832 0.285626 0.769787
912 2 0.173431 0.343265 0.80348
417 1 0.0476837 0.263272 0.804128
412 1 0.365115 0.489644 0.771517
388 1 0.493736 0.377784 0.765863
413 1 0.353334 0.317854 0.794673
883 2 0.527684 0.266873 0.794823
888 2 0.601606 0.40373 0.803866
414 1 0.741702 0.380746 0.7767
884 2 0.945094 0.403186 0.779908
410 1 0.867209 0.288134 0.798557
915 2 0.893557 0.452761 0.813729
891 2 0.0807658 0.624829 0.788016
418 1 0.211245 0.523073 0.804876
887 2 0.514774 0.551998 0.778677
424 1 0.336094 0.753637 0.80567
443 1 0.372799 0.599415 0.801259
395 1 0.670065 0.527739 0.777808
415 1 0.694503 0.532928 0.823106
919 2 0.508602 0.735933 0.775117
430 1 0.562067 0.665427 0.804899
910 2 0.920898 0.588161 0.797308
895 2 0.955492 0.73405 0.779119
420 1 0.792667 0.70103 0.790876
897 2 0.170918 0.926917 0.779107
896 2 0.0627083 0.839398 0.762656
422 1 0.119469 0.784277 0.795742
428 1 0.199695 0.963124 0.811147
421 1 0.0160092 0.895102 0.812082
423 1 0.391865 0.830003 0.778371
403 1 0.373891 0.94704 0.801809
448 1 0.305866 0.887875 0.834259
404 1 0.529509 0.926578 0.787299
899 2 0.647801 0.800862 0.794348
449 1 0.502181 0.821092 0.822596
450 1 0.69818 0.914079 0.81796
425 1 0.677427 0.933471 0.776229
911 2 0.960153 0.726881 0.817923
401 1 0.929645 0.0332868 0.834451
920 2 0.824834 0.872675 0.795574
901 2 0.170215 0.23649 0.868071
905 2 0.991112 0.0646352 0.867361
447 1 0.200989 0.0729232 0.869916
931 2 -0.00389086 0.221901 0.86723
431 1 0.293661 0.0981549 0.82592
902 2 0.426754 0.0247043 0.838056
409 1 0.438897 0.218162 0.832238
427 1 0.331941 0.147902 0.863274
933 2 0.525783 0.314194 0.862276
453 1 0.367948 0.00988732 0.88983
903 2 0.522116 0.0211083 0.866308
949 2 0.686584 0.0711023 0.84327
929 2 0.634529 0.105695 0.88967
434 1 0.552347 0.133661 0.844312
930 2 0.918933 0.183942 0.836516
429 1 0.805696 0.146508 0.867705
408 1 0.144132 0.403353 0.861115
940 2 0.12896 0.516702 0.837334
908 2 0.266365 0.262112 0.83412
439 1 0.485805 0.387763 0.834698
937 2 0.265503 0.422287 0.831425
433 1 0.343186 0.4201 0.872516
440 1 0.744483 0.375855 0.817915
939 2 0.640733 0.425285 0.848941
964 2 0.664921 0.218903 0.860044
436 1 0.0115707 0.343259 0.834984
944 2 0.826884 0.442686 0.855849
935 2 0.831778 0.304343 0.871706
472 1 0.0896003 0.657469 0.860803
917 2 0.21723 0.662921 0.838657
470 1 0.0366364 0.510344 0.87173
497 1 0.144756 0.756473 0.888022
913 2 0.399493 0.513951 0.850745
918 2 0.380312 0.722012 0.874745
419 1 0.406341 0.666368 0.83903
942 2 0.257222 0.53433 0.860967
894 2 0.53654 0.527458 0.828235
925 2 0.6853 0.722112 0.827436
914 2 0.710589 0.560099 0.862
444 1 0.564304 0.682893 0.850968
943 2 0.729444 0.736588 0.871456
441 1 0.972379 0.566709 0.842025
445 1 0.82832 0.649392 0.82958
945 2 0.868675 0.567371 0.877036
946 2 0.929503 0.698297 0.860377
473 1 0.0793498 0.798696 0.84011
921 2 0.9767 0.91654 0.862407
426 1 0.105578 0.982229 0.841837
499 1 0.207405 0.86496 0.861288
947 2 0.377222 0.865355 0.875629
923 2 0.567127 0.986758 0.819963
948 2 0.511486 0.827092 0.861296
446 1 0.665295 0.87869 0.853755
974 2 0.804905 0.95948 0.861029
941 2 0.858977 0.820912 0.836084
475 1 0.852758 0.823195 0.881427
926 2 0.106264 0.0239852 0.898006
907 2 0.248281 0.176812 0.897811
437 1 0.0715941 0.206781 0.903316
457 1 0.149665 0.0744083 0.930765
928 2 0.409122 0.147665 0.894776
478 1 0.448224 0.151801 0.936599
459 1 0.607986 0.178574 0.926126
451 1 0.986094 0.0937129 0.924737
460 1 0.886591 0.0879019 0.893833
455 1 0.763074 0.15932 0.915693
936 2 0.0872989 0.440278 0.91915