ITEM: TIMESTEP
16420
ITEM: NUMBER OF ATOMS
1000
ITEM: BOX BOUNDS pp pp pp
0.0000000000000000e+00 6.2996052494743662e+00
0.0000000000000000e+00 6.2996052494743662e+00
0.0000000000000000e+00 2.5198420997897465e+01
ITEM: ATOMS id type xs ys zs
581 2 0.00555644 0.0929677 0.0706419
471 1 0.995366 0.0714718 0.0227616
51 1 0.110623 0.181275 0.0427504
951 2 0.149928 0.0209025 0.0256628
903 2 0.252381 0.0694438 0.979833
526 2 0.442597 0.117217 0.0209234
512 2 0.268175 0.127726 0.0150464
548 2 0.313565 0.0438146 0.0477886
34 1 0.451451 0.217859 0.04864
96 1 0.538935 0.997322 0.0199449
518 2 0.70047 0.00361998 0.0282421
29 1 0.579857 0.191227 0.0132653
507 2 0.653406 0.171787 0.0482152
918 2 0.855601 0.0076171 0.0345708
71 1 0.940779 0.208961 0.0217277
973 2 0.767591 0.151864 0.0229428
510 2 0.149079 0.38722 0.0547945
927 2 0.0666949 0.329905 0.0272467
482 1 0.206341 0.508002 0.0233489
52 1 0.320412 0.347369 0.0490623
952 2 0.221754 0.312138 0.0208474
511 2 0.338766 0.398449 0.0110925
503 2 0.605375 0.448808 0.0135017
986 2 0.445326 0.268234 0.00319604
27 1 0.717801 0.302392 0.0129755
17 1 0.526515 0.315751 0.0673469
73 1 0.81191 0.418144 0.00892303
13 1 0.938331 0.348193 0.996912
529 2 0.818798 0.496683 0.0418747
977 2 0.816501 0.319134 0.0457486
485 1 0.86962 0.413074 0.0733463
454 1 0.0621916 0.482876 0.0152489
85 1 0.107311 0.617536 0.0580031
523 2 0.148775 0.670644 0.0231669
997 2 0.0299573 0.660721 0.992541
9 1 0.258201 0.606335 0.0536006
63 1 0.44681 0.520947 0.030014
48 1 0.312802 0.717229 0.0163911
947 2 0.402956 0.674591 0.0485958
978 2 0.456044 0.645153 0.00511638
552 2 0.518382 0.465133 0.0648845
79 1 0.615622 0.602107 0.019401
15 1 0.574732 0.595178 0.0548119
487 1 0.956325 0.427356 0.0358765
987 2 0.999374 0.623468 0.0287041
520 2 0.773823 0.6212 0.0240005
49 1 0.862379 0.69849 0.0525043
36 1 0.897738 0.844391 0.0278878
498 1 0.00954175 0.932001 0.0426708
494 1 0.0754871 0.0106755 0.993295
70 1 0.151042 0.860043 0.0343321
23 1 0.309065 0.836007 0.0524928
12 1 0.433897 0.908007 0.0389228
455 1 0.372689 0.85025 0.999809
979 2 0.270577 0.92033 0.0195892
33 1 0.573798 0.735533 0.0256599
4 1 0.594074 0.887854 0.0392521
524 2 0.704615 0.738878 0.0548155
37 1 0.0570313 0.823313 0.00477666
525 2 0.756234 0.893943 0.0525129
495 1 0.783065 0.95821 0.999769
488 1 0.927515 0.95549 0.99912
560 2 0.178768 0.0837381 0.0716634
559 2 0.995546 0.0424646 0.105054
92 1 0.2919 0.197292 0.0504329
546 2 0.131362 0.255065 0.0834601
589 2 0.0758547 0.221939 0.116513
89 1 0.393553 0.269012 0.0916774
516 2 0.455149 0.0804698 0.0606683
599 2 0.274664 0.169188 0.0962536
543 2 0.412987 0.141336 0.116792
45 1 0.601043 0.0297777 0.0548808
565 2 0.688093 0.276152 0.0727828
554 2 0.565207 0.193753 0.0874808
558 2 0.571352 0.265617 0.124818
528 2 0.853089 0.213277 0.0721092
982 2 0.743209 0.0609606 0.0647346
967 2 0.853474 0.0460592 0.091302
57 1 0.188951 0.364957 0.110491
65 1 0.0413583 0.452352 0.085559
527 2 0.494762 0.383347 0.027788
561 2 0.609727 0.380749 0.0974288
78 1 0.363619 0.411578 0.093908
477 1 0.685644 0.453468 0.0533012
42 1 0.751264 0.42925 0.105497
575 2 0.971577 0.322432 0.0982114
521 2 0.741914 0.543264 0.0799884
41 1 0.989775 0.277415 0.0598473
77 1 0.905419 0.48476 0.106714
486 1 0.93254 0.181655 0.106219
7 1 0.175514 0.62416 0.092325
985 2 0.0902507 0.509445 0.116403
594 2 0.0142099 0.628815 0.108489
28 1 0.209837 0.47855 0.082637
139 1 0.189099 0.760341 0.0672459
514 2 0.373194 0.546957 0.0703308
11 1 0.262493 0.514391 0.119826
56 1 0.616826 0.546702 0.111469
533 2 0.499114 0.660377 0.0941122
86 1 0.671882 0.678673 0.0908131
64 1 0.659343 0.665803 0.130224
35 1 0.962819 0.566441 0.0665771
40 1 0.845556 0.645359 0.0910067
590 2 0.738636 0.524025 0.132061
963 2 0.250031 0.752214 0.111392
555 2 0.193539 0.930863 0.0665979
38 1 0.16312 0.950896 0.114106
542 2 0.10272 0.811029 0.0961872
597 2 0.0545021 0.943299 0.0764902
547 2 0.419392 0.804972 0.126721
537 2 0.346193 0.739907 0.0797208
513 2 0.356078 0.0502262 0.0892736
95 1 0.443191 0.886424 0.0814348
545 2 0.526692 0.755003 0.0628983
468 1 0.554179 0.0288996 0.0931791
998 2 0.575026 0.802761 0.12227
21 1 0.625637 0.891152 0.0821085
532 2 0.0303262 0.738339 0.0682389
98 1 0.937613 0.832918 0.097034
598 2 0.729917 0.868414 0.117101
534 2 0.795058 0.815081 0.0822998
39 1 0.888453 0.921849 0.0660783
577 2 0.17825 0.110196 0.125804
539 2 0.0181476 0.134491 0.155068
54 1 0.164099 0.0376189 0.17684
638 2 0.144149 0.236456 0.150506
105 1 0.431547 0.276894 0.149063
68 1 0.431248 0.079447 0.157076
112 1 0.302418 0.163657 0.15928
72 1 0.300941 0.00875359 0.127278
59 1 0.5721 0.0975885 0.133421
541 2 0.674562 0.10222 0.10049
99 1 0.586494 0.252576 0.160156
566 2 0.785972 0.217924 0.10493
550 2 0.815918 0.0279696 0.126804
93 1 0.925623 0.244418 0.143854
118 1 0.871095 0.0552679 0.159183
544 2 0.0173968 0.407424 0.141162
957 2 0.0021475 0.24241 0.182173
82 1 0.196228 0.393185 0.145649
636 2 0.0245904 0.55818 0.146971
76 1 0.281596 0.269726 0.125253
671 2 0.458856 0.281437 0.18916
62 1 0.466806 0.384571 0.123532
557 2 0.543394 0.414147 0.159131
576 2 0.668009 0.391023 0.131806
100 1 0.718214 0.445483 0.16579
90 1 0.732599 0.292125 0.163278
60 1 0.858096 0.365292 0.125605
80 1 0.881032 0.475844 0.155671
125 1 0.176462 0.51632 0.168459
107 1 0.135699 0.673032 0.135466
553 2 0.0341751 0.806874 0.172688
97 1 0.268789 0.777301 0.150453
538 2 0.457143 0.52178 0.105053
551 2 0.369369 0.655014 0.123016
595 2 0.380513 0.530954 0.142959
519 2 0.497129 0.620917 0.143876
50 1 0.622416 0.551326 0.15721
116 1 0.488176 0.775677 0.158504
981 2 0.885449 0.59686 0.132229
83 1 0.851726 0.674721 0.169853
517 2 0.888916 0.827268 0.166558
642 2 0.0212847 0.637541 0.182251
88 1 0.0379527 0.972046 0.147298
578 2 0.0489602 0.948462 0.18868
53 1 0.0866603 0.83037 0.134408
141 1 0.197175 0.909977 0.151329
509 2 0.296622 0.901014 0.0993272
570 2 0.404467 0.889179 0.161802
587 2 0.459796 0.994585 0.122374
502 2 0.609171 0.940418 0.140458
14 1 0.685396 0.795628 0.149342
108 1 0.765282 0.941929 0.16132
104 1 0.986772 0.722188 0.142383
44 1 0.928668 0.904381 0.129686
10 1 0.826934 0.754458 0.127642
583 2 0.999203 0.0969931 0.197505
127 1 0.203337 0.00863482 0.216842
580 2 0.932052 0.260432 0.217056
569 2 0.142376 0.191313 0.188837
667 2 0.0412568 0.189144 0.231472
536 2 0.491364 0.0845453 0.221128
74 1 0.37071 0.106578 0.194168
971 2 0.657777 0.0579314 0.161466
530 2 0.698019 0.165985 0.18358
117 1 0.78615 0.171314 0.142652
626 2 0.545782 0.137691 0.184857
109 1 0.84755 0.176501 0.184074
102 1 0.729879 0.981243 0.199405
601 2 0.921655 0.137274 0.252695
628 2 0.918725 0.989503 0.238013
535 2 0.1219 0.349788 0.187048
585 2 0.25205 0.401411 0.209965
91 1 0.307603 0.456044 0.171975
611 2 0.306494 0.263471 0.207035
101 1 0.307489 0.307853 0.165808
609 2 0.451247 0.44311 0.190957
586 2 0.449768 0.232925 0.221937
55 1 0.594386 0.439203 0.230635
84 1 0.639966 0.499019 0.1987
607 2 0.604397 0.314569 0.201024
670 2 0.770116 0.390646 0.20348
1 1 0.968657 0.427982 0.188382
157 1 0.861665 0.3291 0.177758
564 2 0.807998 0.549329 0.190182
582 2 0.0212863 0.372979 0.222879
87 1 0.0935873 0.492853 0.20362
169 1 0.0697848 0.630855 0.223089
166 1 0.112947 0.493159 0.240475
144 1 0.165176 0.698827 0.179002
606 2 0.297795 0.548881 0.202208
593 2 0.310708 0.619377 0.165254
665 2 0.526578 0.564004 0.217872
115 1 0.400423 0.67949 0.207174
604 2 0.699908 0.666117 0.180708
556 2 0.477243 0.593578 0.179974
150 1 0.655525 0.683681 0.21939
647 2 0.560587 0.716441 0.189842
622 2 0.944371 0.548619 0.212753
94 1 0.91646 0.757686 0.242
111 1 0.823538 0.66135 0.220329
122 1 0.184309 0.849638 0.196916
591 2 0.254293 0.708251 0.21708
563 2 0.109787 0.772073 0.236757
562 2 0.390402 0.971915 0.209612
635 2 0.426786 0.815352 0.250301
120 1 0.301175 0.00765197 0.168255
613 2 0.283972 0.852597 0.229362
66 1 0.344487 0.800689 0.188725
149 1 0.476889 0.837354 0.2041
540 2 0.534421 0.986783 0.181281
572 2 0.649715 0.0695075 0.218547
113 1 0.721128 0.824824 0.185553
632 2 0.921794 0.749709 0.20201
615 2 0.892208 0.973321 0.192583
596 2 0.995902 0.86929 0.223163
648 2 0.798949 0.885568 0.226968
128 1 0.206261 0.0393137 0.257764
652 2 0.106561 0.17515 0.266804
603 2 0.356121 0.0903904 0.236033
124 1 0.286875 0.0992093 0.288375
138 1 0.362963 0.256221 0.253928
140 1 0.244871 0.172804 0.2448
579 2 0.470524 0.0913069 0.261041
110 1 0.625851 0.0500427 0.264784
151 1 0.444637 0.181517 0.291094
129 1 0.747232 0.167062 0.252587
623 2 0.576394 0.201025 0.240115
679 2 0.639327 0.178453 0.298924
26 1 0.820026 0.103071 0.219049
176 1 0.960533 0.0197587 0.277381
630 2 0.810262 3.06181e-05 0.266303
610 2 0.16287 0.266255 0.222443
618 2 0.185925 0.343475 0.258843
130 1 0.977608 0.293674 0.253993
608 2 0.404465 0.400999 0.231003
612 2 0.345886 0.430044 0.271033
592 2 0.689173 0.326519 0.244032
653 2 0.534633 0.338054 0.252125
161 1 0.750948 0.248441 0.218257
621 2 0.746174 0.491548 0.234155
637 2 0.636367 0.435925 0.276955
135 1 0.837116 0.288444 0.269163
567 2 0.869799 0.392996 0.232676
641 2 0.922612 0.466497 0.263383
634 2 0.166017 0.481994 0.272941
247 1 0.118537 0.695102 0.282739
121 1 0.174788 0.639412 0.252741
568 2 0.00298997 0.598853 0.256346
651 2 0.287564 0.524951 0.242134
617 2 0.489098 0.516179 0.268772
697 2 0.265501 0.578033 0.28826
531 2 0.658823 0.605818 0.25166
675 2 0.666164 0.63335 0.293115
164 1 0.48313 0.66883 0.252215
619 2 0.603208 0.777251 0.254516
148 1 0.434724 0.669778 0.289315
152 1 0.824563 0.596446 0.256168
81 1 0.767292 0.748759 0.260491
691 2 0.788015 0.478439 0.275509
142 1 0.209865 0.807499 0.266816
616 2 0.087612 0.938084 0.245593
614 2 0.0394103 0.816697 0.2719
177 1 0.122394 0.951012 0.283031
69 1 0.511947 0.941694 0.231681
134 1 0.354187 0.965271 0.26748
672 2 0.318335 0.704263 0.262537
103 1 0.434492 0.846535 0.291497
131 1 0.615989 0.847786 0.218067
147 1 0.55743 0.918802 0.272889
195 1 0.450066 0.733117 0.326609
605 2 0.677867 0.954786 0.2393
625 2 0.908136 0.869383 0.266689
655 2 0.729889 0.880777 0.273032
119 1 0.103026 0.275568 0.300277
680 2 0.0784136 0.129303 0.304196
662 2 0.0253389 0.994261 0.314108
690 2 0.0651191 0.123015 0.340835
185 1 0.204321 0.0685464 0.327669
201 1 0.363987 0.128704 0.323367
183 1 0.472815 0.0200012 0.293764
190 1 0.60201 0.215311 0.354145
686 2 0.502985 0.238926 0.323412
238 1 0.57485 0.066382 0.322356
172 1 0.865118 0.0370496 0.306216
649 2 0.97381 0.215319 0.287836
189 1 0.723557 0.0784518 0.337571
123 1 0.793953 0.183209 0.294103
180 1 0.121436 0.455826 0.335445
145 1 0.0246798 0.410349 0.283568
179 1 0.197832 0.233576 0.335881
639 2 0.982055 0.443108 0.358867
126 1 0.356829 0.277638 0.322368
640 2 0.266141 0.240506 0.291464
656 2 0.293378 0.371644 0.355774
137 1 0.249785 0.412351 0.301267
657 2 0.459005 0.458128 0.329148
627 2 0.646558 0.317014 0.295586
67 1 0.641832 0.355394 0.343311
699 2 0.786739 0.304645 0.318829
643 2 0.494813 0.355753 0.361544
170 1 0.68487 0.496826 0.356218
160 1 0.89551 0.362263 0.298622
154 1 0.738985 0.459137 0.312752
158 1 0.83253 0.500855 0.340216
133 1 0.92802 0.21496 0.32265
664 2 0.00983578 0.352755 0.324245
620 2 0.109255 0.546942 0.306297
629 2 0.958995 0.496869 0.312253
178 1 0.992529 0.643313 0.302086
114 1 0.504458 0.356104 0.299016
168 1 0.377114 0.574162 0.313327
661 2 0.295402 0.540035 0.346575
720 2 0.197158 0.641676 0.32611
650 2 0.577098 0.520496 0.309889
146 1 0.593757 0.777229 0.339845
155 1 0.579603 0.76498 0.301001
198 1 0.699941 0.62151 0.332041
231 1 0.875064 0.731089 0.28869
700 2 0.968849 0.63722 0.352523
175 1 0.833397 0.604801 0.313473
682 2 0.997916 0.800572 0.319492
159 1 0.127874 0.893174 0.340852
153 1 0.14139 0.823482 0.303364
221 1 0.273215 0.855305 0.34528
624 2 0.291262 0.751914 0.302698
658 2 0.246465 0.939089 0.311431
163 1 0.429417 0.836962 0.357573
696 2 0.386904 0.918281 0.324947
719 2 0.707772 0.978024 0.307975
724 2 0.559214 0.89962 0.314601
588 2 0.864944 0.877455 0.306939
673 2 0.732587 0.774987 0.312557
202 1 0.806249 0.957676 0.341124
181 1 0.0818711 0.185182 0.381985
660 2 0.110394 0.0187374 0.370359
236 1 0.247448 0.0841671 0.39591
687 2 0.300953 0.155633 0.362009
602 2 0.464775 0.151765 0.353308
136 1 0.424506 0.104216 0.389716
187 1 0.640818 0.176083 0.387042
698 2 0.611221 0.0264035 0.36418
633 2 0.693137 0.958324 0.39998
716 2 0.782691 0.224875 0.363992
749 2 0.899388 0.074941 0.343854
165 1 0.949577 0.23831 0.365115
715 2 0.941524 0.0915735 0.38313
677 2 0.242352 0.30462 0.385893
584 2 0.158298 0.423387 0.374857
106 1 0.0816698 0.300718 0.354551
156 1 0.0556087 0.482591 0.405284
211 1 0.111128 0.340403 0.402352
678 2 0.404502 0.244286 0.384749
188 1 0.382785 0.41025 0.394693
143 1 0.418428 0.488596 0.364667
669 2 0.560377 0.334278 0.40203
692 2 0.697963 0.333176 0.386695
237 1 0.606338 0.48381 0.390424
194 1 0.818453 0.366347 0.353784
710 2 0.954822 0.355665 0.395362
709 2 0.802878 0.285196 0.406461
688 2 0.267829 0.551268 0.387774
196 1 0.154065 0.585535 0.35917
199 1 0.259839 0.678976 0.422077
200 1 0.104218 0.641845 0.394925
207 1 0.307769 0.702572 0.348761
220 1 0.382765 0.657101 0.379414
645 2 0.531472 0.575969 0.351024
171 1 0.474732 0.558067 0.400601
631 2 0.670178 0.687169 0.370559
725 2 0.512313 0.710354 0.373936
209 1 0.737126 0.774363 0.40282
779 2 0.607102 0.643631 0.401456
644 2 0.793182 0.477373 0.385088
191 1 0.942722 0.587115 0.393487
674 2 0.826181 0.622055 0.369256
666 2 0.7332 0.577334 0.413148
225 1 0.109823 0.770484 0.364981
212 1 0.215462 0.931845 0.381052
205 1 0.154434 0.800302 0.404954
712 2 0.236586 0.699124 0.381209
197 1 0.347395 0.00529472 0.371799
706 2 0.47241 0.991961 0.353699
646 2 0.452415 0.95898 0.399887
741 2 0.410377 0.821416 0.392513
703 2 0.689963 0.88157 0.360902
717 2 0.563154 0.885592 0.381111
173 1 0.5495 0.816155 0.417537
676 2 0.848231 0.769305 0.341914
705 2 0.958584 0.9573 0.361972
654 2 0.990777 0.810122 0.39552
689 2 0.781387 0.0519471 0.37282
224 1 0.816969 0.893777 0.376797
213 1 0.352004 0.0103164 0.463071
184 1 0.129535 0.135954 0.416989
791 2 0.17881 0.0529484 0.453193
182 1 0.413061 0.0880306 0.427147
321 1 0.300664 0.187464 0.417571
162 1 0.568359 0.207775 0.426391
792 2 0.312381 0.162274 0.454793
193 1 0.72473 0.204119 0.43443
233 1 0.63029 0.186374 0.466422
718 2 0.775756 0.138379 0.46453
702 2 0.561763 0.0586452 0.412898
659 2 0.834738 0.0580261 0.416749
240 1 0.925539 0.200558 0.410332
772 2 0.978279 0.0792792 0.431203
242 1 0.130407 0.391672 0.444391
265 1 0.227713 0.288553 0.447191
767 2 0.0747209 0.238002 0.438564
167 1 0.430624 0.433902 0.432047
736 2 0.278589 0.399178 0.425405
713 2 0.429938 0.285437 0.425048
695 2 0.345748 0.394761 0.467072
218 1 0.560197 0.330401 0.477288
132 1 0.585646 0.504767 0.425699
234 1 0.761934 0.35742 0.465814
216 1 0.712756 0.417519 0.424325
714 2 0.597996 0.360269 0.44452
685 2 0.722118 0.503987 0.470822
239 1 0.863788 0.282959 0.441979
217 1 0.859076 0.487725 0.425738
261 1 0.981449 0.390846 0.430999
275 1 0.897301 0.50076 0.473453
203 1 0.187196 0.535975 0.428243
186 1 0.0447272 0.506669 0.453229
222 1 0.12388 0.666842 0.441672
223 1 0.434956 0.685617 0.421016
296 1 0.355211 0.544468 0.419935
745 2 0.276926 0.530666 0.459272
707 2 0.469154 0.578362 0.455182
255 1 0.627378 0.629825 0.45865
206 1 0.666377 0.727181 0.432309
737 2 0.99719 0.640907 0.428326
723 2 0.803283 0.633308 0.44325
693 2 0.927682 0.645986 0.466726
681 2 0.106592 0.989827 0.408466
257 1 0.292925 0.980841 0.420267
284 1 0.102196 0.912293 0.450583
746 2 0.193124 0.776515 0.455156
174 1 0.336153 0.703185 0.456292
708 2 0.290161 0.828803 0.419147
733 2 0.387995 0.859967 0.45053
229 1 0.769016 0.889358 0.432378
232 1 0.511918 0.971587 0.446207
727 2 0.514584 0.75661 0.457762
683 2 0.68337 0.0243666 0.434467
246 1 0.868618 0.745983 0.423222
251 1 0.930767 0.943518 0.397137
684 2 0.929689 0.914353 0.436895
755 2 0.0160398 0.783842 0.431893
774 2 0.746959 0.815191 0.470367
763 2 0.109927 0.159646 0.474226
290 1 0.118401 0.082702 0.521224
272 1 0.281176 0.151667 0.489853
711 2 0.0267641 0.0240957 0.473066
781 2 0.142581 0.290545 0.512761
208 1 0.444918 0.973434 0.4901
235 1 0.529468 0.0858544 0.509701
738 2 0.487027 0.124582 0.475237
287 1 0.276852 0.0177863 0.506324
742 2 0.415533 0.188148 0.525309
264 1 0.650846 0.068597 0.486308
289 1 0.740169 0.0283988 0.516434
219 1 0.570957 0.241518 0.505824
734 2 0.723705 0.189356 0.500786
804 2 0.897411 0.0927879 0.503174
215 1 0.959544 0.168774 0.468291
729 2 0.0197105 0.203912 0.508796
759 2 0.853021 0.233981 0.515353
732 2 0.188383 0.358972 0.480613
244 1 0.982024 0.433468 0.5064
192 1 0.99939 0.483424 0.544024
315 1 0.143777 0.435869 0.520707
259 1 0.30007 0.310083 0.500783
269 1 0.426903 0.268011 0.469782
285 1 0.432787 0.346923 0.510541
204 1 0.533681 0.497793 0.485691
721 2 0.642978 0.385338 0.506683
744 2 0.736549 0.444678 0.541907
739 2 0.871575 0.300917 0.483455
740 2 0.0273993 0.327304 0.467725
260 1 0.799457 0.401783 0.511856
278 1 0.137807 0.601161 0.520852
762 2 0.17522 0.657731 0.483877
785 2 0.15434 0.503131 0.484402
701 2 0.0366843 0.629719 0.491313
766 2 0.373673 0.604207 0.489473
249 1 0.46891 0.546821 0.522405
752 2 0.310437 0.730305 0.505756
258 1 0.347933 0.464951 0.511112
227 1 0.512873 0.668481 0.491199
300 1 0.638994 0.58766 0.505583
314 1 0.615185 0.770077 0.498042
722 2 0.746603 0.676144 0.483422
754 2 0.726549 0.741535 0.518808
230 1 0.79984 0.554335 0.506955
663 2 0.880131 0.728928 0.499081
747 2 0.16436 0.945767 0.482872
757 2 0.00690425 0.96516 0.526082
735 2 0.285083 0.844821 0.483374
726 2 0.0470286 0.764676 0.472896
793 2 0.162155 0.788214 0.515206
770 2 0.00260361 0.813057 0.512933
214 1 0.455525 0.815179 0.486606
210 1 0.377355 0.876667 0.512718
731 2 0.436813 0.711093 0.523562
309 1 0.599282 0.913976 0.4994
753 2 0.608415 0.871068 0.465259
282 1 0.735596 0.967546 0.472315
279 1 0.56052 0.821948 0.530824
704 2 0.875169 0.998555 0.468902
250 1 0.905138 0.84607 0.469918
668 2 0.842751 0.899656 0.501934
799 2 0.204235 0.00680591 0.558498
277 1 0.969043 0.123462 0.545357
302 1 0.0993689 0.240338 0.544531
310 1 0.356496 0.0183218 0.547326
263 1 0.442998 0.13872 0.560411
798 2 0.4823 0.951935 0.534737
728 2 0.274541 0.207763 0.530709
764 2 0.24213 0.141453 0.567831
778 2 0.593055 0.0495634 0.543015
348 1 0.491878 0.00516652 0.577678
809 2 0.652011 0.147269 0.564541
824 2 0.726371 0.00813351 0.562718
294 1 0.950176 0.293937 0.583567
308 1 0.796965 0.126725 0.540922
320 1 0.812349 0.211959 0.574288
286 1 0.895652 0.0857068 0.582761
295 1 0.955328 0.275424 0.541045
298 1 0.0747231 0.392604 0.564763
357 1 0.241966 0.340027 0.553379
366 1 0.386078 0.303983 0.559536
228 1 0.40891 0.457009 0.548611
270 1 0.54685 0.251091 0.54736
274 1 0.68819 0.328313 0.572678
761 2 0.694778 0.276642 0.534304
254 1 0.502119 0.432888 0.57937
694 2 0.575931 0.455622 0.546878
765 2 0.851891 0.352192 0.557342
811 2 0.221352 0.511337 0.561067
730 2 0.0226107 0.6874 0.548172
283 1 0.0599389 0.573667 0.581693
748 2 0.295092 0.609006 0.538236
266 1 0.461848 0.829568 0.5727
267 1 0.223091 0.659798 0.592874
775 2 0.1795 0.668388 0.554556
322 1 0.475049 0.61881 0.561876
288 1 0.335806 0.708888 0.572085
273 1 0.649833 0.744679 0.560652
823 2 0.580176 0.651106 0.533334
245 1 0.781736 0.619187 0.551004
350 1 0.492789 0.709402 0.592686
750 2 0.606875 0.575815 0.568302
262 1 0.932396 0.59697 0.517868
790 2 0.925659 0.567694 0.572937
795 2 0.770041 0.485516 0.58146
306 1 0.836869 0.704785 0.582436
243 1 0.0449623 0.0232831 0.574197
256 1 0.111092 0.867407 0.552158
751 2 0.275824 0.804527 0.547109
780 2 0.181028 0.93353 0.523122
832 2 0.325966 0.990447 0.5855
777 2 0.251083 0.837267 0.582239
372 1 0.619339 0.905683 0.559683
783 2 0.766461 0.887981 0.538137
789 2 0.881824 0.990769 0.547894
865 2 0.888827 0.819003 0.55003
291 1 0.84455 0.91586 0.57901
281 1 0.082998 0.182847 0.579939
802 2 0.138656 0.218115 0.631825
871 2 0.0111796 0.110544 0.620726
788 2 0.204138 0.0875711 0.599861
800 2 0.106914 0.99111 0.633938
319 1 0.408643 0.0909698 0.599883
803 2 0.3045 0.0991531 0.630331
376 1 0.437942 0.213149 0.625317
326 1 0.63436 0.00238605 0.620807
758 2 0.557828 0.131534 0.610406
304 1 0.707835 0.167284 0.632808
268 1 0.716833 0.0906344 0.59471
817 2 0.862745 0.0640567 0.632178
349 1 0.0196269 0.278464 0.621427
782 2 0.205298 0.312839 0.595421
891 2 0.187927 0.382846 0.627888
341 1 0.340012 0.409404 0.619162
368 1 0.218832 0.517861 0.599529
299 1 0.329608 0.438196 0.58003
292 1 0.32182 0.232398 0.596281
794 2 0.483677 0.266571 0.58755
311 1 0.593992 0.278075 0.628638
769 2 0.633269 0.426683 0.600486
328 1 0.493608 0.381681 0.616982
845 2 0.742734 0.304469 0.642855
776 2 0.927002 0.433338 0.589652
331 1 0.853094 0.20149 0.613496
313 1 0.785816 0.331141 0.600122
271 1 0.889915 0.357177 0.627935
843 2 0.977756 0.686718 0.600108
825 2 0.0888569 0.42607 0.599919
821 2 0.170799 0.548691 0.640947
850 2 0.120801 0.667867 0.620743
796 2 0.114602 0.767326 0.580066
860 2 0.337963 0.580863 0.627871
743 2 0.324658 0.725383 0.615607
241 1 0.380464 0.571162 0.594267
293 1 0.532713 0.570733 0.61063
226 1 0.653089 0.725384 0.618784
813 2 0.783501 0.477585 0.624794
826 2 0.695113 0.604117 0.604988
840 2 0.751056 0.671236 0.645346
797 2 0.846139 0.60514 0.610772
829 2 0.968373 0.492866 0.618369
280 1 0.143127 0.940475 0.594917
822 2 0.959987 0.813195 0.582541
760 2 0.195978 0.810869 0.620255
332 1 0.0492137 0.824263 0.619323
343 1 0.405286 0.850985 0.607691
818 2 0.305288 0.940473 0.625159
374 1 0.480555 0.971895 0.622063
819 2 0.555941 0.827865 0.631963
325 1 0.575918 0.882932 0.599043
297 1 0.730786 0.840258 0.594215
324 1 0.647193 0.766478 0.668361
849 2 0.7059 0.857324 0.642404
784 2 0.937855 0.96902 0.609361
301 1 0.766512 0.958459 0.615679
808 2 0.877102 0.781851 0.621183
305 1 0.928706 0.899792 0.649732
864 2 0.983036 0.65654 0.642637
416 1 0.20785 0.120407 0.695625
346 1 0.252793 0.0325975 0.659998
863 2 0.11573 0.0706741 0.667912
361 1 0.953833 0.000825485 0.707493
787 2 0.33192 0.196705 0.670279
874 2 0.443881 0.0572257 0.652035
316 1 0.349711 0.0182919 0.692734
812 2 0.515765 0.206391 0.672903
333 1 0.50109 0.0687346 0.692957
342 1 0.660628 0.0198562 0.706268
353 1 0.740806 0.000449261 0.655414
276 1 0.588155 0.0762312 0.652134
335 1 0.688656 0.15572 0.680067
807 2 0.959977 0.081877 0.671136
827 2 0.812157 0.185942 0.659671
365 1 0.832678 0.02562 0.685735
370 1 0.88547 0.185395 0.70301
771 2 0.229074 0.304779 0.66783
861 2 0.0525424 0.188926 0.691522
386 1 0.124792 0.419065 0.683923
862 2 0.475534 0.328705 0.652523
834 2 0.492621 0.337996 0.712748
801 2 0.35567 0.360633 0.689276
364 1 0.421366 0.49952 0.695804
248 1 0.622982 0.309494 0.671511
859 2 0.644766 0.260577 0.705467
340 1 0.639422 0.459449 0.644544
303 1 0.865137 0.389082 0.668711
345 1 0.97672 0.252668 0.66072
387 1 0.983542 0.367553 0.696936
816 2 0.777671 0.29977 0.69044
838 2 0.04078 0.385487 0.645864
814 2 0.285876 0.452164 0.655701
842 2 0.33417 0.68936 0.659924
836 2 0.117677 0.667945 0.658241
253 1 0.443792 0.481115 0.646391
872 2 0.602628 0.618105 0.696716
815 2 0.459309 0.718417 0.630702
831 2 0.467854 0.749328 0.681286
768 2 0.549615 0.443325 0.67932
773 2 0.71718 0.489314 0.676676
847 2 0.582874 0.62969 0.648096
873 2 0.7827 0.627651 0.682627
355 1 0.0273948 0.521703 0.672009
334 1 0.857171 0.543961 0.656225
379 1 0.92646 0.667964 0.687311
867 2 0.188534 0.846462 0.656345
252 1 0.0167484 0.797253 0.666306
810 2 0.047061 0.939539 0.680544
347 1 0.214905 0.742778 0.690943
869 2 0.245196 0.911815 0.706443
756 2 0.412659 0.882748 0.65232
317 1 0.395257 0.869963 0.697889
854 2 0.745614 0.88257 0.688375
327 1 0.565274 0.938002 0.679776
358 1 0.85139 0.760277 0.662286
846 2 0.890965 0.852288 0.695344
389 1 0.729124 0.754503 0.714855
359 1 0.0468272 0.174707 0.730204
930 2 0.113512 0.0242254 0.707566
921 2 0.0984988 0.074589 0.752471
900 2 0.40241 0.184372 0.70879
323 1 0.306324 0.082152 0.729855
307 1 0.476024 0.0684558 0.7448
880 2 0.224835 0.163614 0.753353
390 1 0.753751 0.278831 0.72823
837 2 0.681977 0.148129 0.742821
449 1 0.623064 0.19175 0.780915
443 1 0.535925 0.185567 0.726597
882 2 0.803899 0.00905395 0.761822
830 2 0.931856 0.0791892 0.738651
853 2 0.794471 0.0419482 0.720311
385 1 0.811446 0.18705 0.767693
338 1 0.118787 0.296562 0.713022
835 2 0.284546 0.404836 0.761169
848 2 0.159976 0.414098 0.739144
990 2 0.141647 0.284752 0.761858
851 2 0.250944 0.239326 0.719901
373 1 0.376049 0.211215 0.746056
858 2 0.377599 0.529114 0.733906
901 2 0.516015 0.460438 0.734936
375 1 0.590845 0.306537 0.755064
422 1 0.747551 0.435164 0.744264
839 2 0.866287 0.391496 0.716404
855 2 0.0294608 0.466716 0.728226
410 1 0.895204 0.248968 0.740443
460 1 0.738035 0.328765 0.77263
875 2 0.917803 0.486251 0.751537
424 1 0.201387 0.588095 0.688156
473 1 0.0571722 0.680847 0.703553
881 2 0.210237 0.65205 0.725264
805 2 0.165748 0.538414 0.761885
896 2 0.257821 0.444036 0.710417
362 1 0.338672 0.69209 0.712819
844 2 0.66321 0.419453 0.710973
360 1 0.492329 0.623461 0.727031
397 1 0.752873 0.550074 0.720582
430 1 0.656072 0.714522 0.751424
935 2 0.622928 0.569133 0.74451
423 1 0.915216 0.567017 0.71778
898 2 0.807896 0.6031 0.758206
384 1 0.99596 0.645875 0.743262
377 1 0.998068 0.906769 0.741261
879 2 0.215512 0.677751 0.771917
852 2 0.22139 0.962085 0.747573
398 1 0.0834088 0.835468 0.70434
420 1 0.135774 0.773557 0.747442
339 1 0.51254 0.943343 0.716938
318 1 0.385159 0.91684 0.744406
820 2 0.270393 0.803363 0.732425
396 1 0.467378 0.78077 0.732907
897 2 0.549093 0.842549 0.762424
833 2 0.400995 0.772063 0.783947
909 2 0.569526 0.791295 0.704732
886 2 0.65311 0.887206 0.726264
337 1 0.623217 0.00789363 0.749118
330 1 0.836571 0.898284 0.732899
892 2 0.93366 0.789805 0.725193
870 2 0.806225 0.764125 0.752398
413 1 0.105982 0.178884 0.805742
363 1 0.343315 0.0805666 0.770972
412 1 0.436138 0.0572001 0.807308
928 2 0.306396 0.137244 0.810679
354 1 0.577119 0.0497157 0.784843
884 2 0.745782 0.186632 0.802977
429 1 0.538357 0.241057 0.816125
462 1 0.45402 0.203403 0.781564
895 2 0.989896 0.188218 0.766219
329 1 0.885544 0.276605 0.787668
356 1 0.838154 0.0647198 0.8023
457 1 0.997246 0.0780111 0.81449
876 2 0.986067 0.307894 0.823518
441 1 0.130557 0.422696 0.783171
476 1 0.149583 0.315402 0.820024
408 1 0.278467 0.255971 0.781497
828 2 0.429 0.377943 0.759416
984 2 0.377724 0.292578 0.811416
380 1 0.530533 0.373181 0.790178
312 1 0.337843 0.45576 0.793887
417 1 0.6943 0.356034 0.808941
889 2 0.666408 0.472837 0.776379
414 1 0.862232 0.450538 0.800536
893 2 0.996985 0.360223 0.766585
806 2 0.816829 0.302667 0.823907
344 1 0.0351078 0.69623 0.784746
912 2 0.200113 0.58316 0.798887
877 2 0.27116 0.787485 0.806835
841 2 0.323677 0.573625 0.776141
857 2 0.415709 0.602575 0.809947
400 1 0.542906 0.793222 0.801165
367 1 0.454577 0.672536 0.761865
910 2 0.506254 0.520618 0.773957
391 1 0.588804 0.647918 0.782136
915 2 0.524429 0.680374 0.828714
405 1 0.563511 0.531656 0.812698
972 2 0.982501 0.546926 0.786721
351 1 0.015656 0.598494 0.827707
381 1 0.739355 0.613729 0.792665
404 1 0.8614 0.712424 0.786622
411 1 0.949839 0.818256 0.767008
856 2 0.861058 0.633431 0.82211
933 2 0.730468 0.499826 0.827128
942 2 0.145998 0.861976 0.781159
425 1 0.0857361 0.93723 0.809959
916 2 0.172434 0.0748979 0.785761
406 1 0.101655 0.768737 0.821062
924 2 0.446776 0.964033 0.779838
941 2 0.312221 0.920548 0.778608
407 1 0.252643 0.986478 0.810869
383 1 0.41574 0.851044 0.814218
925 2 0.532779 0.944364 0.809796
382 1 0.694001 0.872028 0.763117
421 1 0.693229 0.952209 0.805678
352 1 0.986254 0.9601 0.774883
899 2 0.84206 0.902337 0.786741
392 1 0.968438 0.825263 0.809094
497 1 0.908135 0.954381 0.828017
954 2 0.165143 0.0699105 0.83904
956 2 0.200309 0.182426 0.867768
483 1 0.0280728 0.0151337 0.854754
428 1 0.108662 0.0707107 0.885733
786 2 0.460894 0.12933 0.836032
452 1 0.318718 0.0718093 0.843143
463 1 0.385997 0.206538 0.868483
369 1 0.620946 0.0889566 0.82282
481 1 0.671016 0.241406 0.842184
868 2 0.556546 0.182839 0.869166
964 2 0.897917 0.172183 0.841299
976 2 0.731233 0.0838168 0.847991
435 1 0.884151 0.155609 0.878229
953 2 0.750376 0.273351 0.87722
30 1 0.861836 0.000965644 0.861927
393 1 0.059077 0.446612 0.817493
968 2 0.0789691 0.214895 0.842305
426 1 0.0449305 0.382868 0.856997
388 1 0.265127 0.435562 0.82741
418 1 0.158282 0.528579 0.844274
378 1 0.455307 0.463413 0.835181
434 1 0.439902 0.343434 0.855821
934 2 0.275351 0.281581 0.843727
501 2 0.328565 0.432927 0.862269
883 2 0.617246 0.40926 0.839924
949 2 0.594573 0.325015 0.873165
440 1 0.509249 0.474348 0.884046
955 2 0.754692 0.419361 0.864421
431 1 0.902225 0.332893 0.868105
966 2 0.919439 0.475679 0.843096
371 1 0.195219 0.67022 0.83987
905 2 0.0435417 0.594523 0.865374
461 1 0.0778714 0.727126 0.887551
932 2 0.330658 0.583223 0.843782
878 2 0.300684 0.678648 0.87097
445 1 0.462667 0.642608 0.86001
913 2 0.376273 0.745568 0.837848
919 2 0.674746 0.636604 0.847981
975 2 0.649145 0.566431 0.879997
939 2 0.552908 0.678592 0.90656
944 2 0.973875 0.735232 0.836462
394 1 0.780694 0.756947 0.848795
395 1 0.871649 0.605544 0.859016
890 2 0.200175 0.808504 0.866247
438 1 0.117418 0.889559 0.894641
894 2 0.222007 0.966625 0.866816
940 2 0.373042 0.79618 0.884696
937 2 0.525731 0.827984 0.894099
22 1 0.293491 0.88631 0.838111
401 1 0.390213 0.951748 0.86524
920 2 0.691273 0.757689 0.820928
887 2 0.61861 0.797767 0.859257
917 2 0.482737 0.825955 0.84913
922 2 0.711319 0.92892 0.84512
336 1 0.551101 0.973133 0.851222
453 1 0.0532031 0.855743 0.849284
911 2 0.914316 0.858911 0.862159
885 2 0.775878 0.873128 0.879821
929 2 0.0722947 0.231143 0.938615
451 1 0.138855 0.0931673 0.926238
996 2 0.0443283 0.205966 0.878611
970 2 0.27876 0.0953488 0.900028
995 2 0.228011 0.222578 0.932129
403 1 0.284499 0.28598 0.895016
474 1 0.40724 0.181138 0.914423
923 2 0.400667 0.032229 0.922756
493 1 0.550978 0.266552 0.908823
866 2 0.494749 0.0459273 0.887275
399 1 0.607355 0.110729 0.905589
484 1 0.564731 0.953968 0.91809
427 1 0.907364 0.0806441 0.910417
450 1 0.746003 0.190796 0.913825
500 1 0.788826 0.0677464 0.93126
437 1 0.964049 0.01918 0.9414
47 1 0.00475564 0.373713 0.911387