ITEM: TIMESTEP
10420
ITEM: NUMBER OF ATOMS
1000
ITEM: BOX BOUNDS pp pp pp
0.0000000000000000e+00 6.2996052494743662e+00
0.0000000000000000e+00 6.2996052494743662e+00
0.0000000000000000e+00 2.5198420997897465e+01
ITEM: ATOMS id type xs ys zs
11 1 0.0909233 0.0910865 0.0662538
952 2 0.0942643 0.137349 0.993022
46 1 0.0637247 0.018716 0.0187654
486 1 0.0143634 0.15545 0.0375286
13 1 0.2472 0.105715 0.0105043
526 2 0.398406 0.222925 0.0534772
17 1 0.510568 0.0637933 0.000464649
28 1 0.254749 0.127703 0.0496027
504 2 0.776942 0.215987 0.998934
529 2 0.543224 0.179473 0.0317004
12 1 0.649793 0.971699 0.0277781
573 2 0.716256 0.191944 0.0378739
477 1 0.933155 0.261574 0.00108766
544 2 0.783104 0.0649766 0.0229751
534 2 0.77519 0.999703 0.0594012
528 2 0.165633 0.236337 0.0530829
510 2 0.0952765 0.260331 0.0145434
987 2 0.182597 0.380036 0.0342594
489 1 0.286647 0.278224 0.0229237
63 1 0.411086 0.432181 0.022237
7 1 0.330911 0.382229 0.0598385
506 2 0.581009 0.476163 0.0480258
485 1 0.731508 0.496353 0.0423856
58 1 0.593943 0.325123 0.0114769
61 1 0.954086 0.412828 0.0240298
977 2 0.00548189 0.322751 0.0524469
487 1 0.745666 0.384128 0.996765
961 2 0.883714 0.542304 0.043967
71 1 0.837379 0.295363 0.0303982
963 2 0.0982153 0.484151 0.00106187
997 2 0.144017 0.721336 0.0165966
86 1 0.0281857 0.609548 0.0228164
65 1 0.180432 0.58578 0.0358656
524 2 0.35681 0.596909 0.0308593
927 2 0.27541 0.451977 0.0108275
19 1 0.257191 0.596492 0.996165
18 1 0.277327 0.738421 0.0415685
514 2 0.434603 0.744561 0.03787
989 2 0.653326 0.676789 0.0111272
998 2 0.581721 0.657651 0.0421132
999 2 0.599312 0.519864 0.0117056
962 2 0.938244 0.568635 0.997804
33 1 0.715214 0.657964 0.0519656
545 2 0.925999 0.689932 0.0413199
488 1 0.996359 0.76569 0.00479969
967 2 0.0451007 0.933546 0.0710318
21 1 0.0598296 0.871464 0.0325302
918 2 0.203063 0.992242 0.0370803
9 1 0.354283 0.927873 0.047113
24 1 0.446513 0.86578 0.0152243
37 1 0.271209 0.852646 0.0152975
95 1 0.772787 0.836146 0.0346511
29 1 0.644974 0.952858 0.984696
548 2 0.624873 0.934643 0.0666838
507 2 0.779132 0.00195987 0.989806
571 2 0.480996 0.0132539 0.0388698
971 2 0.593167 0.810887 0.0390587
936 2 0.930864 0.929662 0.00543308
100 1 0.933576 0.000523209 0.0405319
549 2 0.895221 0.859147 0.0553701
101 1 0.18309 0.153423 0.104556
985 2 0.0818693 0.261875 0.0959066
555 2 0.220813 0.0115393 0.122766
560 2 0.342335 0.156634 0.0970853
498 1 0.406637 0.0525051 0.0689011
600 2 0.517784 0.173098 0.0798927
521 2 0.645559 0.254061 0.0906542
27 1 0.636131 0.0909329 0.0552367
48 1 0.46223 0.0580718 0.108582
527 2 0.475638 0.240625 0.112132
1 1 0.954741 0.139271 0.0897219
982 2 0.886612 0.205073 0.0621184
565 2 0.801777 0.115302 0.085548
532 2 0.0722327 0.495436 0.0444332
85 1 0.0654261 0.405991 0.0816486
77 1 0.207606 0.393692 0.121695
52 1 0.235691 0.28536 0.085244
552 2 0.496189 0.334186 0.062855
551 2 0.40296 0.456661 0.09261
125 1 0.345327 0.44542 0.129461
581 2 0.207573 0.462721 0.083014
73 1 0.678682 0.364167 0.0607307
558 2 0.527489 0.383926 0.11148
519 2 0.527713 0.539352 0.0829365
598 2 0.919562 0.212712 0.124093
35 1 0.780423 0.286385 0.0907167
981 2 0.825881 0.379999 0.0611041
41 1 0.927912 0.331131 0.088926
957 2 0.118533 0.584623 0.0755668
10 1 0.101987 0.732752 0.0930979
547 2 0.185189 0.575964 0.109929
517 2 0.253248 0.673583 0.0860819
56 1 0.319592 0.552225 0.0675666
538 2 0.443759 0.578433 0.111561
523 2 0.4548 0.676613 0.0722392
38 1 0.377834 0.737778 0.0987576
511 2 0.698937 0.493329 0.08085
15 1 0.743444 0.694957 0.10493
520 2 0.826161 0.604312 0.0818957
40 1 0.971491 0.54077 0.0767417
502 2 0.941648 0.74887 0.0913279
44 1 0.088496 0.0338411 0.102293
525 2 0.18638 0.869546 0.0550561
546 2 0.165591 0.868324 0.0982157
57 1 0.25854 0.0362167 0.0857945
23 1 0.302574 0.842167 0.0765723
542 2 0.317365 0.872783 0.127372
543 2 0.392851 0.920456 0.0977633
516 2 0.745721 0.791845 0.073666
559 2 0.472821 0.849311 0.0682242
96 1 0.743079 0.96174 0.0971562
577 2 0.616064 0.855539 0.0976515
575 2 0.901664 0.982504 0.0785953
59 1 0.841998 0.0205927 0.121709
70 1 0.0712637 0.734129 0.0560258
39 1 0.973494 0.927366 0.111462
513 2 0.83037 0.838052 0.111369
80 1 0.0975219 0.176543 0.136236
566 2 0.155493 0.0507101 0.158903
82 1 0.236269 0.168138 0.175917
576 2 0.985158 0.0723449 0.132694
599 2 0.465214 0.141943 0.141411
74 1 0.356235 0.106412 0.169677
93 1 0.315764 0.137344 0.131349
503 2 0.653772 0.0643274 0.106836
536 2 0.499207 0.0177416 0.169221
99 1 0.671247 0.077934 0.156712
79 1 0.606529 0.187494 0.125926
34 1 0.752013 0.165412 0.126747
554 2 0.898439 0.127072 0.165633
60 1 0.840245 0.967515 0.158022
150 1 0.844975 0.254553 0.178659
64 1 0.0497232 0.468042 0.114978
590 2 0.169127 0.292279 0.153584
582 2 0.124002 0.442477 0.1484
83 1 0.327636 0.300261 0.122435
87 1 0.403874 0.428226 0.188051
561 2 0.385626 0.274018 0.177663
564 2 0.280172 0.391462 0.162587
50 1 0.695449 0.402846 0.110849
78 1 0.455566 0.327621 0.146022
62 1 0.623832 0.365545 0.14432
531 2 0.60849 0.554157 0.117564
112 1 0.534158 0.334971 0.193867
76 1 0.690451 0.300267 0.184226
533 2 0.869859 0.46806 0.094389
26 1 0.99812 0.269625 0.156243
604 2 0.80484 0.300231 0.135202
89 1 0.911016 0.404627 0.126362
550 2 0.173373 0.74817 0.127504
553 2 0.120579 0.619316 0.141878
98 1 0.0967241 0.806728 0.159278
556 2 0.493908 0.487931 0.144558
595 2 0.269389 0.565284 0.141109
91 1 0.322369 0.728208 0.138659
570 2 0.510066 0.656776 0.138937
509 2 0.770145 0.539367 0.135176
537 2 0.550925 0.711944 0.103224
116 1 0.627999 0.562306 0.158093
88 1 0.660697 0.732678 0.133541
14 1 0.86643 0.554745 0.16358
587 2 0.963054 0.802406 0.129821
66 1 0.963272 0.608383 0.123955
90 1 0.81018 0.688562 0.141054
94 1 0.984455 0.487796 0.150806
42 1 0.0879801 0.909681 0.134849
105 1 0.0322306 0.966947 0.168559
53 1 0.383001 0.996759 0.142177
541 2 0.22538 0.852012 0.160413
578 2 0.422448 0.881593 0.17811
597 2 0.467834 0.828986 0.124012
92 1 0.545021 0.986391 0.134591
69 1 0.716528 0.852871 0.182027
539 2 0.69015 0.896745 0.137441
589 2 0.577099 0.874528 0.166535
540 2 0.866547 0.811255 0.157607
580 2 0.0551873 0.120265 0.181545
601 2 0.975508 0.255659 0.200088
603 2 0.180796 0.112747 0.241009
610 2 0.201469 0.0682137 0.203844
638 2 0.341004 0.139586 0.207174
134 1 0.612828 0.0699625 0.238135
110 1 0.650209 0.121252 0.200039
127 1 0.464392 0.0579919 0.206836
68 1 0.780849 0.0499751 0.185323
109 1 0.802012 0.179644 0.21135
605 2 0.932813 0.0993213 0.203869
535 2 0.143955 0.458956 0.202755
107 1 0.160606 0.299851 0.199176
140 1 0.0416557 0.364321 0.22384
632 2 0.293101 0.566378 0.188753
157 1 0.513552 0.184098 0.190213
611 2 0.420944 0.305886 0.216979
617 2 0.388904 0.505868 0.224316
651 2 0.281456 0.374874 0.222771
608 2 0.545105 0.403737 0.238838
586 2 0.545662 0.204013 0.233021
557 2 0.693492 0.453509 0.193166
671 2 0.737505 0.37743 0.221618
54 1 0.0420946 0.384965 0.181368
585 2 0.927337 0.314812 0.259562
81 1 0.872682 0.342 0.213066
84 1 0.808363 0.402222 0.16543
104 1 0.851896 0.502326 0.235377
111 1 0.0760375 0.564969 0.175617
622 2 0.137965 0.743844 0.197601
606 2 0.0785967 0.534405 0.228383
618 2 0.00992728 0.63672 0.198804
591 2 0.263897 0.599576 0.226633
122 1 0.304323 0.735474 0.196647
141 1 0.411789 0.600951 0.166282
613 2 0.431817 0.716347 0.217895
607 2 0.659162 0.494863 0.249071
72 1 0.545941 0.504542 0.18989
67 1 0.535057 0.660695 0.183134
592 2 0.647473 0.630014 0.21255
635 2 0.814216 0.53663 0.198298
615 2 0.958017 0.493341 0.209163
139 1 0.737768 0.650951 0.1792
594 2 0.998319 0.691044 0.159641
108 1 0.977833 0.814654 0.187538
596 2 0.149264 0.898331 0.195091
117 1 0.0543274 0.0362755 0.215952
567 2 0.180982 0.929956 0.232329
97 1 0.421016 0.754067 0.164504
583 2 0.276681 0.980982 0.179258
118 1 0.36017 0.871444 0.218563
562 2 0.51194 0.901054 0.221015
572 2 0.633225 0.964285 0.199433
144 1 0.596738 0.784875 0.198994
530 2 0.925205 0.952571 0.194793
55 1 0.773705 0.90867 0.210795
113 1 0.714707 0.76946 0.226484
563 2 0.835908 0.720488 0.198021
648 2 0.859559 0.795689 0.230649
128 1 0.0515271 0.183077 0.225749
602 2 0.177915 0.281128 0.247996
646 2 0.14397 0.164712 0.279496
163 1 0.279619 0.166404 0.267996
153 1 0.322178 0.977511 0.24969
201 1 0.342211 0.302295 0.289635
177 1 0.382306 0.0975821 0.289745
131 1 0.425739 0.0859392 0.246183
124 1 0.65699 0.135388 0.267621
137 1 0.478174 0.20978 0.271352
653 2 0.684366 0.000700684 0.274322
579 2 0.777051 0.0553696 0.236101
569 2 0.915376 0.147163 0.239535
151 1 0.814688 0.080082 0.276743
175 1 0.042754 0.0518705 0.299557
614 2 0.915416 0.965587 0.273312
145 1 0.0344826 0.308436 0.288575
636 2 0.241765 0.410617 0.271872
661 2 0.176673 0.326089 0.300054
626 2 0.351743 0.213877 0.238398
612 2 0.499173 0.362655 0.279041
650 2 0.383509 0.430747 0.312134
640 2 0.628926 0.305173 0.307937
138 1 0.658469 0.340512 0.270062
634 2 0.787348 0.414397 0.260177
172 1 0.99272 0.182192 0.272625
623 2 0.771032 0.220435 0.253232
119 1 0.913609 0.438069 0.286886
120 1 0.0645234 0.672816 0.236358
166 1 0.161057 0.537408 0.26601
146 1 0.313718 0.557467 0.259493
624 2 0.183899 0.707904 0.274668
675 2 0.386854 0.369949 0.253395
142 1 0.436444 0.663572 0.253344
114 1 0.469494 0.493364 0.270712
616 2 0.275237 0.77699 0.244486
637 2 0.666325 0.485757 0.287667
665 2 0.752747 0.63144 0.240271
115 1 0.607454 0.64447 0.261878
670 2 0.527062 0.562504 0.232812
123 1 0.74037 0.719318 0.274395
630 2 0.58794 0.636896 0.301579
609 2 0.910157 0.654244 0.242018
135 1 0.0113794 0.517515 0.25994
169 1 0.800147 0.581895 0.282394
620 2 0.98362 0.654005 0.285344
102 1 0.0355022 0.00855734 0.259302
152 1 0.977251 0.867567 0.29744
121 1 0.051292 0.770981 0.265746
642 2 0.0511609 0.845876 0.222261
672 2 0.194592 0.870758 0.268687
696 2 0.259995 0.912219 0.297896
673 2 0.432356 0.817231 0.313318
568 2 0.201651 0.0276956 0.273713
103 1 0.348767 0.758528 0.281636
593 2 0.579012 0.765013 0.238645
647 2 0.593507 0.923538 0.251804
164 1 0.523868 0.785185 0.280567
149 1 0.44565 0.873596 0.257208
160 1 0.659844 0.855778 0.283664
588 2 0.781617 0.902938 0.251253
667 2 0.920514 0.00556311 0.235659
621 2 0.868184 0.786347 0.267261
625 2 0.799082 0.878277 0.301287
176 1 0.191942 0.0671772 0.312086
706 2 0.260316 0.0904721 0.348218
182 1 0.14595 0.22143 0.328929
700 2 0.0418948 0.0562864 0.339413
197 1 0.280084 0.210071 0.317575
231 1 0.366084 0.000203844 0.32434
678 2 0.439136 0.139385 0.328947
658 2 0.521167 0.991954 0.315028
702 2 0.409557 0.0264079 0.366264
183 1 0.564869 0.127257 0.29919
627 2 0.587525 0.146589 0.339795
126 1 0.738212 0.17389 0.312117
180 1 0.855953 0.0566813 0.31184
655 2 0.767143 0.0334096 0.346026
185 1 0.853832 0.19497 0.345172
680 2 0.0112606 0.178391 0.317524
657 2 0.232098 0.35961 0.335429
106 1 0.0554914 0.331926 0.334343
584 2 0.0589134 0.480484 0.310294
662 2 0.481537 0.313553 0.319891
148 1 0.530839 0.481227 0.316137
167 1 0.304273 0.493257 0.336845
686 2 0.566899 0.280046 0.357948
133 1 0.735585 0.288955 0.344105
158 1 0.645346 0.410808 0.34041
652 2 0.873863 0.224828 0.295566
161 1 0.774353 0.3859 0.295566
699 2 0.904475 0.358645 0.321377
645 2 0.132854 0.521683 0.342483
641 2 0.155091 0.679411 0.314074
168 1 0.232786 0.558345 0.30643
619 2 0.405743 0.625176 0.297883
171 1 0.280767 0.655176 0.339339
143 1 0.454793 0.569644 0.34319
198 1 0.544868 0.74272 0.345603
639 2 0.678931 0.747341 0.320925
643 2 0.599496 0.589646 0.344869
170 1 0.705904 0.712466 0.359639
244 1 0.703866 0.514577 0.371866
129 1 0.719555 0.580563 0.324606
130 1 0.884785 0.553082 0.31472
191 1 0.00640302 0.598197 0.339243
629 2 0.854441 0.719727 0.304535
207 1 0.211569 0.950493 0.337172
247 1 0.133882 0.839085 0.310078
649 2 0.0134709 0.744701 0.316809
196 1 0.0389022 0.878059 0.342792
720 2 0.103426 0.726095 0.347484
691 2 0.341861 0.862746 0.341288
697 2 0.273201 0.778386 0.314016
178 1 0.504419 0.912618 0.351514
147 1 0.51368 0.989017 0.277389
154 1 0.588482 0.84582 0.317016
628 2 0.683485 0.00564832 0.315414
155 1 0.89 0.930914 0.330892
195 1 0.793065 0.795746 0.339856
212 1 0.212987 0.0721554 0.420178
677 2 0.12691 0.104175 0.371992
736 2 0.23021 0.245333 0.363189
211 1 0.117984 0.245758 0.39732
690 2 0.0774176 0.0366027 0.40563
187 1 0.399868 0.223878 0.365894
682 2 0.315881 0.907003 0.385206
188 1 0.309426 0.105406 0.388293
683 2 0.414792 0.0862151 0.415285
633 2 0.522168 0.12398 0.374957
165 1 0.696655 0.152247 0.366179
189 1 0.610858 0.239592 0.404579
679 2 0.9652 0.0738583 0.372009
184 1 0.76873 0.269941 0.388942
656 2 0.971375 0.258023 0.371448
179 1 0.83639 0.0900389 0.398149
687 2 0.122843 0.378807 0.370109
688 2 0.157009 0.396071 0.405343
136 1 0.342505 0.386688 0.361437
213 1 0.280136 0.311342 0.394024
162 1 0.397619 0.441236 0.401223
692 2 0.462152 0.333633 0.386997
664 2 0.611984 0.369164 0.388324
217 1 0.507192 0.442702 0.360965
669 2 0.557689 0.517647 0.390063
693 2 0.840187 0.402142 0.377651
710 2 0.991433 0.31965 0.41824
156 1 0.00713707 0.429225 0.39661
132 1 0.234242 0.513155 0.37257
203 1 0.229176 0.531082 0.413303
216 1 0.0311802 0.547974 0.373164
220 1 0.174189 0.641182 0.377922
631 2 0.358514 0.597992 0.372701
173 1 0.610628 0.638495 0.381275
723 2 0.634815 0.662581 0.415747
718 2 0.650936 0.504072 0.421017
644 2 0.867633 0.604398 0.355319
666 2 0.980394 0.425278 0.357613
199 1 0.947582 0.747217 0.353562
186 1 0.894739 0.51645 0.404212
194 1 0.790735 0.466485 0.344428
275 1 0.785786 0.621824 0.390025
205 1 0.954617 0.658801 0.389243
221 1 0.201816 0.815344 0.364449
745 2 0.146959 0.730139 0.423898
660 2 0.0988539 0.933836 0.374158
225 1 0.0782017 0.752324 0.390576
223 1 0.363353 0.745968 0.366795
725 2 0.293203 0.738371 0.402597
202 1 0.476226 0.887685 0.388179
174 1 0.495154 0.724327 0.394074
746 2 0.242537 0.895413 0.424149
190 1 0.652579 0.87219 0.352132
676 2 0.628651 0.812478 0.386732
698 2 0.61951 0.999029 0.366554
703 2 0.591195 0.954134 0.404409
654 2 0.914531 0.94208 0.368079
200 1 0.94977 0.844791 0.392463
674 2 0.80855 0.805583 0.375049
724 2 0.751925 0.94386 0.388208
209 1 0.943725 0.981144 0.42265
236 1 0.0988337 0.0106326 0.448476
232 1 0.321041 0.209783 0.427127
261 1 0.202609 0.120498 0.456667
235 1 0.0737645 0.194165 0.435909
707 2 0.331174 0.0281719 0.441489
214 1 0.473432 0.985474 0.456338
684 2 0.443987 0.156333 0.465543
238 1 0.460423 0.234522 0.412677
233 1 0.360742 0.0486175 0.480679
159 1 0.656723 0.0914306 0.405277
705 2 0.667584 0.165352 0.46485
717 2 0.546567 0.131932 0.437668
228 1 0.610812 0.978478 0.439342
715 2 0.850165 0.109396 0.440034
659 2 0.861423 0.236815 0.422449
192 1 0.0781551 0.448861 0.432729
711 2 0.9854 0.301847 0.460654
272 1 0.170093 0.328824 0.451827
242 1 0.275343 0.38045 0.428643
239 1 0.445724 0.331315 0.44561
714 2 0.331882 0.431966 0.465978
716 2 0.526436 0.422109 0.420448
689 2 0.707351 0.292968 0.43047
739 2 0.620699 0.392835 0.456475
240 1 0.762793 0.478646 0.454846
734 2 0.549188 0.26794 0.472035
181 1 0.969605 0.152136 0.403781
709 2 0.774627 0.412603 0.415649
740 2 0.888988 0.45694 0.476704
230 1 0.835156 0.214591 0.464558
222 1 0.0822902 0.592193 0.414975
296 1 0.207076 0.503659 0.450644
206 1 0.0515989 0.715849 0.449695
193 1 0.437928 0.613582 0.415876
237 1 0.356943 0.52335 0.437719
721 2 0.508768 0.530234 0.452422
663 2 0.664599 0.600308 0.455598
668 2 0.653417 0.758202 0.462189
204 1 0.524221 0.684605 0.43971
737 2 0.801521 0.610537 0.429641
215 1 0.919954 0.433507 0.436488
224 1 0.800466 0.7675 0.452693
767 2 0.998159 0.572294 0.447788
246 1 0.954356 0.707402 0.423216
695 2 0.247682 0.65612 0.450125
257 1 0.137039 0.848209 0.454162
681 2 0.0862481 0.873611 0.418233
208 1 0.480734 0.881633 0.426876
722 2 0.379183 0.742239 0.437101
708 2 0.333472 0.870092 0.454905
727 2 0.491646 0.825275 0.462678
229 1 0.615107 0.814303 0.429668
749 2 0.763883 0.987321 0.424042
719 2 0.770955 0.797551 0.413932
243 1 0.754849 0.867715 0.485922
755 2 0.952308 0.852625 0.44924
251 1 0.887129 0.979566 0.462574
732 2 0.124931 0.178973 0.495083
753 2 0.284613 0.123207 0.513188
264 1 0.435627 0.072372 0.523622
729 2 0.543171 0.0604269 0.479079
778 2 0.627379 0.239079 0.500462
250 1 0.727819 0.0148842 0.464775
284 1 0.833942 0.0894434 0.525925
210 1 0.829865 0.0995402 0.486104
759 2 0.766493 0.226175 0.517475
265 1 0.978557 0.111453 0.46249
260 1 0.911013 0.291396 0.498359
321 1 0.971011 0.129871 0.512801
262 1 0.0292478 0.499157 0.484414
765 2 0.0747599 0.345205 0.497792
747 2 0.124068 0.495484 0.514249
742 2 0.222714 0.292524 0.502288
712 2 0.182446 0.433244 0.483381
234 1 0.290228 0.240767 0.466167
738 2 0.420792 0.202064 0.505115
792 2 0.319538 0.398046 0.50197
685 2 0.715573 0.340023 0.48312
269 1 0.454215 0.50833 0.520984
779 2 0.473558 0.423243 0.486069
744 2 0.694421 0.446521 0.524702
762 2 0.978917 0.443203 0.518639
761 2 0.818666 0.377216 0.515377
273 1 0.0425885 0.64722 0.490108
267 1 0.216338 0.595084 0.484606
766 2 0.271727 0.526503 0.516292
741 2 0.342035 0.73502 0.479373
713 2 0.384339 0.588801 0.480345
752 2 0.225673 0.735039 0.517487
218 1 0.517629 0.691542 0.479896
694 2 0.609268 0.556863 0.48953
249 1 0.474364 0.649374 0.51473
748 2 0.653086 0.713061 0.503879
300 1 0.784964 0.641525 0.485089
245 1 0.855088 0.526957 0.509275
774 2 0.902646 0.67917 0.463405
735 2 0.174319 0.0322597 0.491455
780 2 0.0942344 0.942796 0.521453
278 1 0.0912324 0.80947 0.492569
266 1 0.22832 0.885784 0.483361
751 2 0.186012 0.867544 0.540647
733 2 0.423549 0.904944 0.495225
227 1 0.373729 0.821849 0.524082
255 1 0.575464 0.978457 0.511249
772 2 0.60289 0.905697 0.478096
279 1 0.531674 0.813649 0.508786
726 2 0.0530632 0.953176 0.479445
701 2 0.918169 0.820607 0.488472
704 2 0.803411 0.776135 0.516297
799 2 0.933406 0.975709 0.503125
287 1 0.171883 0.0808306 0.543691
256 1 0.0286372 0.0862178 0.54992
788 2 0.166478 0.25954 0.564899
796 2 0.331186 0.0384124 0.564389
731 2 0.317541 0.966662 0.516963
310 1 0.441987 0.136856 0.564306
259 1 0.409862 0.337352 0.525354
760 2 0.408786 0.0800369 0.599458
757 2 0.333649 0.233244 0.548373
289 1 0.534225 0.18705 0.535186
277 1 0.542256 0.197939 0.593448
804 2 0.662834 0.124637 0.524246
290 1 0.748806 0.126542 0.560617
776 2 0.853518 0.206181 0.581528
791 2 0.906444 0.240845 0.543173
280 1 0.892649 0.0684798 0.56542
763 2 0.0797266 0.214602 0.533688
298 1 0.223458 0.553906 0.552068
286 1 0.0256224 0.331832 0.576888
295 1 0.0839778 0.37812 0.540006
728 2 0.234705 0.393058 0.531919
349 1 0.162333 0.405361 0.578934
832 2 0.347739 0.371402 0.586228
764 2 0.472218 0.318354 0.567262
263 1 0.377604 0.444613 0.554895
270 1 0.643949 0.272493 0.541763
294 1 0.667687 0.257547 0.578718
219 1 0.553354 0.377119 0.529125
285 1 0.639963 0.414564 0.56335
790 2 0.798738 0.317928 0.559571
366 1 0.801072 0.487286 0.557483
274 1 0.938079 0.404559 0.552659
320 1 0.85942 0.390324 0.589035
293 1 0.242799 0.749333 0.555205
775 2 0.0931589 0.626917 0.531181
797 2 0.110887 0.674875 0.570547
299 1 0.081283 0.51077 0.562153
248 1 0.401729 0.593474 0.553857
253 1 0.390418 0.746683 0.607905
322 1 0.555593 0.764588 0.548632
769 2 0.518693 0.497947 0.55779
254 1 0.61505 0.567474 0.530228
226 1 0.640215 0.634154 0.568432
241 1 0.959365 0.570904 0.537802
770 2 0.93697 0.692473 0.518539
750 2 0.841666 0.621856 0.574709
314 1 0.728823 0.668997 0.535531
283 1 0.204301 0.784907 0.59698
800 2 0.188819 0.966991 0.570898
793 2 0.0538739 0.783377 0.530633
743 2 0.407484 0.750064 0.564701
258 1 0.327084 0.871487 0.573179
348 1 0.462342 0.856211 0.59085
823 2 0.668048 0.851414 0.523601
309 1 0.461181 0.903273 0.550079
282 1 0.619746 0.888372 0.574359
308 1 0.77343 0.963343 0.537591
783 2 0.752323 0.785083 0.565164
730 2 0.92069 0.878675 0.534252
306 1 0.788661 0.948727 0.574448
785 2 0.99116 0.958493 0.570855
754 2 0.917859 0.759624 0.560485
291 1 0.105858 0.235157 0.597239
781 2 0.990445 0.13473 0.59027
802 2 0.199699 0.124991 0.582968
810 2 0.0294168 0.215012 0.637757
771 2 0.340235 0.214839 0.592276
758 2 0.472266 0.961748 0.629517
756 2 0.344555 0.176745 0.630214
252 1 0.268964 0.0110639 0.606627
789 2 0.687245 0.0872543 0.594729
809 2 0.552154 0.0148118 0.59555
335 1 0.551515 0.117415 0.625574
824 2 0.619996 0.033877 0.552521
826 2 0.696965 0.994632 0.63156
281 1 0.81995 0.983889 0.612232
305 1 0.901669 0.128095 0.624711
331 1 0.944506 0.273246 0.607887
817 2 0.102529 0.388656 0.623274
801 2 0.0530257 0.491863 0.654328
347 1 0.185723 0.193352 0.637265
268 1 0.456247 0.294927 0.627589
787 2 0.288362 0.330511 0.621741
782 2 0.358763 0.514519 0.652218
319 1 0.514278 0.466893 0.59402
333 1 0.354379 0.333483 0.662269
794 2 0.58591 0.335959 0.605001
773 2 0.653237 0.434886 0.628856
834 2 0.423887 0.433395 0.622773
311 1 0.779411 0.274799 0.613156
784 2 0.716161 0.154923 0.630874
840 2 0.802221 0.402625 0.645796
811 2 0.940486 0.409056 0.631875
297 1 0.955634 0.651201 0.597377
795 2 0.0210753 0.579284 0.626231
315 1 0.977977 0.480108 0.594963
341 1 0.165049 0.553237 0.6061
768 2 0.476676 0.636015 0.583751
292 1 0.328562 0.54898 0.615164
342 1 0.266451 0.644907 0.587773
777 2 0.475004 0.794572 0.637474
328 1 0.199917 0.678386 0.623353
303 1 0.608769 0.584115 0.61239
818 2 0.4632 0.625007 0.634121
324 1 0.653874 0.770183 0.635874
313 1 0.730533 0.517288 0.593171
813 2 0.700803 0.603779 0.645031
845 2 0.825619 0.520186 0.61843
325 1 0.74672 0.668126 0.603901
825 2 0.884045 0.700832 0.628865
822 2 0.0905171 0.939552 0.598637
798 2 0.0931972 0.83212 0.573656
821 2 0.145482 0.964132 0.636503
326 1 0.377811 0.807157 0.667702
842 2 0.314848 0.89974 0.634693
288 1 0.573476 0.758443 0.588619
808 2 0.722564 0.866566 0.603535
374 1 0.590746 0.889935 0.622214
843 2 0.791743 0.838512 0.639963
814 2 0.0738182 0.798519 0.613104
271 1 0.98406 0.964606 0.623047
350 1 0.877999 0.842108 0.602773
850 2 0.872541 0.98207 0.648416
302 1 0.0994897 0.0875564 0.615384
332 1 0.128627 0.191015 0.671917
357 1 0.0382563 0.328234 0.667406
276 1 0.374421 0.00714068 0.658588
372 1 0.480928 0.201826 0.657605
330 1 0.482318 0.240731 0.692897
803 2 0.577407 0.0155791 0.658454
365 1 0.635909 0.292141 0.640304
301 1 0.633892 0.162179 0.663221
835 2 0.619143 0.236273 0.717873
334 1 0.5625 0.126184 0.696515
846 2 0.946308 0.197075 0.674933
304 1 0.799926 0.129866 0.665118
390 1 0.758019 0.158196 0.702154
829 2 0.246152 0.293901 0.684338
812 2 0.247335 0.450252 0.690757
416 1 0.106135 0.404341 0.702616
323 1 0.399415 0.406119 0.705861
833 2 0.293361 0.161942 0.664567
807 2 0.188593 0.371783 0.655382
339 1 0.570686 0.370774 0.679925
340 1 0.709219 0.469459 0.676768
816 2 0.860614 0.25247 0.642571
376 1 0.729892 0.260699 0.678253
871 2 0.86776 0.346834 0.681672
362 1 0.122074 0.562072 0.685259
815 2 0.0920213 0.750183 0.649926
387 1 0.17664 0.700605 0.677887
862 2 0.210205 0.531434 0.650592
368 1 0.216802 0.815537 0.653786
317 1 0.303018 0.667793 0.651746
318 1 0.45121 0.634636 0.718492
867 2 0.2969 0.591514 0.705008
844 2 0.564983 0.597022 0.695824
338 1 0.545831 0.47606 0.651461
837 2 0.44205 0.517446 0.684335
343 1 0.572734 0.696306 0.66203
839 2 0.771807 0.706494 0.680151
860 2 0.932429 0.657961 0.663335
848 2 0.859212 0.529375 0.654208
861 2 0.963515 0.462738 0.686675
849 2 0.0414382 0.0594994 0.657815
872 2 0.332917 0.916895 0.695564
346 1 0.293723 0.739874 0.697106
820 2 0.230462 0.0262747 0.669728
841 2 0.162681 0.880776 0.683529
847 2 0.436821 0.668002 0.674964
327 1 0.483232 0.956878 0.693399
819 2 0.557032 0.866773 0.668287
316 1 0.727434 0.886859 0.674983
873 2 0.596404 0.872374 0.706933
329 1 0.691827 0.0370415 0.686928
355 1 0.885251 0.832783 0.684387
865 2 0.952842 0.822101 0.65013
855 2 0.0192695 0.918124 0.676738
377 1 0.0419821 0.255501 0.703743
786 2 0.227388 0.150239 0.704847
830 2 0.167256 0.0867508 0.756692
857 2 0.219105 0.237374 0.746728
827 2 0.401776 0.11138 0.689086
854 2 0.308634 0.114203 0.742482
353 1 0.468893 0.157739 0.756908
397 1 0.474964 0.972356 0.770441
359 1 0.347712 0.245632 0.715406
909 2 0.545761 0.0333946 0.729196
853 2 0.782251 0.210905 0.744377
358 1 0.856068 0.995878 0.684342
864 2 0.970676 0.0830526 0.700364
876 2 0.11235 0.121393 0.723733
356 1 0.871222 0.0692717 0.731239
806 2 0.109299 0.332878 0.742573
805 2 0.00672024 0.215116 0.746566
828 2 0.219104 0.415887 0.766636
307 1 0.489889 0.327824 0.734462
851 2 0.311049 0.360003 0.736709
364 1 0.413993 0.465946 0.736711
360 1 0.550145 0.448495 0.715065
889 2 0.677607 0.390767 0.735762
352 1 0.915253 0.214612 0.712251
863 2 0.963346 0.355262 0.722737
859 2 0.80506 0.332932 0.718783
361 1 0.0121979 0.43787 0.754999
386 1 0.816205 0.448878 0.741602
385 1 0.894142 0.310199 0.763145
424 1 0.0801597 0.53711 0.725424
858 2 0.183779 0.599355 0.774288
398 1 0.0553981 0.763582 0.740009
831 2 0.17879 0.653415 0.718883
312 1 0.226665 0.501027 0.733079
400 1 0.500731 0.569127 0.761178
337 1 0.489333 0.738519 0.761806
373 1 0.309445 0.648185 0.741671
838 2 0.7134 0.665577 0.714022
375 1 0.760339 0.590844 0.758249
370 1 0.693186 0.519178 0.713921
893 2 0.603469 0.626343 0.743354
410 1 0.641079 0.496789 0.765312
891 2 0.995119 0.637032 0.702673
345 1 0.848064 0.539029 0.704291
473 1 0.917607 0.594303 0.738493
875 2 0.854261 0.725647 0.718652
881 2 0.217855 0.976644 0.72179
371 1 0.187923 0.802666 0.717711
896 2 0.101126 0.943095 0.749029
874 2 0.418317 0.790811 0.719932
367 1 0.193921 0.722194 0.7569
886 2 0.411551 0.0183235 0.725657
898 2 0.575359 0.721618 0.71563
900 2 0.515838 0.868829 0.739106
354 1 0.712465 0.991008 0.7225
404 1 0.710967 0.729017 0.748792
423 1 0.781425 0.846646 0.717718
836 2 0.0238063 0.801307 0.702532
379 1 0.955922 0.940461 0.718274
396 1 0.117151 0.00258581 0.695397
880 2 0.0578119 0.0921928 0.819389
412 1 0.285357 0.185808 0.812602
910 2 0.160287 0.190071 0.785479
852 2 0.342206 0.0608984 0.776547
882 2 0.428708 0.138255 0.802336
393 1 0.351608 0.24541 0.766315
378 1 0.368088 0.000991053 0.814521
382 1 0.536478 0.0284268 0.808355
389 1 0.593009 0.0861453 0.774481
924 2 0.482291 0.260983 0.783379
414 1 0.621359 0.243997 0.759748
877 2 0.0595487 0.036338 0.785834
869 2 0.755141 0.0432445 0.765042
405 1 0.627325 0.151252 0.819461
879 2 0.914375 0.132489 0.766142
384 1 0.999199 0.213472 0.797572
922 2 0.81116 0.101402 0.809987
369 1 0.264905 0.316514 0.796157
351 1 0.0668478 0.345362 0.78331
932 2 0.143329 0.278647 0.823211
443 1 0.183954 0.478325 0.799489
363 1 0.0187492 0.492863 0.789693
892 2 0.408513 0.343265 0.813941
884 2 0.586596 0.368025 0.806344
887 2 0.509401 0.41964 0.766353
408 1 0.326277 0.520284 0.766906
930 2 0.746196 0.393772 0.773742
964 2 0.724745 0.317557 0.821282
391 1 0.748521 0.483103 0.800231
381 1 0.93817 0.363542 0.80333
460 1 0.782485 0.254064 0.784025
885 2 0.875995 0.541531 0.773042
940 2 0.103128 0.595074 0.812524
406 1 0.96839 0.881114 0.771625
942 2 0.186899 0.748298 0.810379
913 2 0.270233 0.610267 0.809361
917 2 0.371979 0.676096 0.776446
866 2 0.477219 0.622585 0.821058
943 2 0.315294 0.752104 0.831508
933 2 0.399403 0.485988 0.807042
449 1 0.578751 0.524357 0.802993
870 2 0.618711 0.704869 0.791282
394 1 0.680785 0.6211 0.815069
422 1 0.794378 0.670336 0.791598
344 1 0.900926 0.744807 0.763742
411 1 0.936025 0.558323 0.820312
441 1 0.0341504 0.626957 0.760294
497 1 0.97475 0.699774 0.797142
413 1 0.218393 0.0119119 0.802166
392 1 0.100899 0.887224 0.797144
856 2 0.918968 0.835459 0.811429
401 1 0.0827304 0.759998 0.780779
430 1 0.372324 0.885038 0.753697
897 2 0.231461 0.908794 0.767359
383 1 0.325053 0.82029 0.790145
919 2 0.563399 0.843684 0.78556
336 1 0.801821 0.745565 0.833413
868 2 0.61592 0.789889 0.831782
895 2 0.646277 0.937916 0.75958
920 2 0.703067 0.945973 0.796566
425 1 0.896548 0.0131355 0.793127
972 2 0.78966 0.821741 0.789017
899 2 0.841274 0.914904 0.749832
431 1 0.174323 0.232558 0.858673
426 1 0.0548388 0.326651 0.864768
921 2 0.19599 0.0812028 0.842853
388 1 0.341188 0.0875449 0.847939
434 1 0.334391 0.91353 0.852521
941 2 0.492116 0.158964 0.835519
949 2 0.465291 0.201112 0.870199
380 1 0.485223 0.0194409 0.846971
481 1 0.61863 0.0777361 0.858995
975 2 0.758365 0.0806454 0.844117
904 2 0.626136 0.935918 0.882006
990 2 0.890296 0.230084 0.832083
499 1 0.069059 0.082121 0.861535
937 2 0.157655 0.449738 0.866126
901 2 0.0908531 0.443701 0.830208
984 2 0.336847 0.267339 0.842599
429 1 0.289275 0.443901 0.838631
445 1 0.46505 0.443071 0.848382
883 2 0.572389 0.293106 0.84549
888 2 0.740023 0.234421 0.851374
935 2 0.614321 0.441082 0.840156
960 2 0.724799 0.402459 0.857822
974 2 0.57984 0.427898 0.878738
435 1 0.951845 0.495819 0.853422
407 1 0.0757652 0.59167 0.869108
417 1 0.887268 0.336504 0.873481
944 2 0.847808 0.398022 0.8289
902 2 0.928758 0.685748 0.838362
912 2 0.181638 0.644499 0.842045
894 2 0.365342 0.572154 0.852942
939 2 0.458445 0.747704 0.846985
458 1 0.425493 0.506897 0.881446
915 2 0.596579 0.599041 0.851538
931 2 0.754152 0.665129 0.863532
914 2 0.608921 0.755029 0.879476
890 2 0.770067 0.518886 0.842605
415 1 0.706942 0.513082 0.885561
395 1 0.880302 0.58271 0.87596
911 2 0.0528926 0.826465 0.834957
916 2 0.975646 0.958394 0.836792
452 1 0.188983 0.77754 0.866754
476 1 0.200426 0.93646 0.84507
968 2 0.165008 0.017643 0.884853
428 1 0.0474624 0.896056 0.868278
923 2 0.452804 0.854729 0.819335
925 2 0.337219 0.783847 0.86993
399 1 0.645519 0.943791 0.835445
403 1 0.509317 0.874788 0.859356
472 1 0.745772 0.781243 0.895729
420 1 0.899563 0.846575 0.855661
421 1 0.8194 0.937796 0.825325
459 1 0.755371 0.902994 0.863732
451 1 0.879095 0.999962 0.867255
908 2 0.160172 0.279904 0.898223
457 1 0.0771086 0.0375655 0.913959
983 2 0.00867931 0.203707 0.885896
878 2 0.299194 0.196287 0.880156
483 1 0.278416 0.127468 0.917544
934 2 0.316009 0.0512145 0.883161
928 2 0.445549 0.152391 0.912647
953 2 0.782999 0.0804509 0.885189
409 1 0.593866 0.122503 0.89507
479 1 0.888623 0.175268 0.931382
976 2 0.88971 0.145122 0.866328
954 2 0.932908 0.0813549 0.904953
418 1 0.285757 0.367228 0.885112
470 1 0.243022 0.391937 0.919576
436 1 0.101161 0.486029 0.905171
906 2 0.989197 0.500131 0.928821
25 1 0.0526154 0.352134 0.919246
440 1 0.463717 0.337707 0.886738
988 2 0.329926 0.272609 0.915226
439 1 0.33837 0.557916 0.918042
2 1 0.498796 0.258445 0.939197
462 1 0.616217 0.260997 0.882489