ITEM: TIMESTEP
10390
ITEM: NUMBER OF ATOMS
1000
ITEM: BOX BOUNDS pp pp pp
0.0000000000000000e+00 6.2996052494743662e+00
0.0000000000000000e+00 6.2996052494743662e+00
0.0000000000000000e+00 2.5198420997897465e+01
ITEM: ATOMS id type xs ys zs
11 1 0.0767247 0.0953955 0.0675147
952 2 0.101231 0.132018 0.99517
46 1 0.0658581 0.00915528 0.0186186
486 1 0.0201366 0.167728 0.0398919
13 1 0.25786 0.0897551 0.0126356
526 2 0.399562 0.223773 0.0520592
17 1 0.521436 0.0485378 0.00299178
28 1 0.263922 0.115167 0.0524533
504 2 0.767863 0.225454 0.00108216
529 2 0.551763 0.180813 0.0329982
12 1 0.640914 0.971703 0.0254748
573 2 0.70882 0.198208 0.0403927
477 1 0.918396 0.262619 0.000765321
544 2 0.785192 0.0590437 0.0236305
534 2 0.775532 0.00747887 0.0608326
528 2 0.156058 0.233348 0.0520527
510 2 0.0937923 0.281122 0.0152854
987 2 0.176424 0.382013 0.0337454
489 1 0.287391 0.288009 0.0250329
63 1 0.409978 0.426634 0.0211633
7 1 0.332056 0.390201 0.0596246
506 2 0.5887 0.475193 0.0488707
485 1 0.731217 0.517967 0.04435
58 1 0.61552 0.325007 0.0146319
61 1 0.965479 0.417701 0.022052
977 2 0.0031641 0.322479 0.0529889
487 1 0.743638 0.389191 0.997368
961 2 0.875521 0.53487 0.0439723
71 1 0.836066 0.285711 0.0313073
963 2 0.1029 0.476187 0.000434703
997 2 0.146658 0.71355 0.0170876
86 1 0.0271342 0.60313 0.024647
65 1 0.202678 0.586916 0.0384048
524 2 0.349512 0.59383 0.0331539
927 2 0.260411 0.460115 0.0107019
19 1 0.256067 0.598386 0.998261
18 1 0.272028 0.725931 0.0397233
514 2 0.436318 0.751051 0.036871
989 2 0.655278 0.682235 0.00945752
998 2 0.570403 0.644296 0.041525
999 2 0.601623 0.527535 0.013564
962 2 0.929965 0.562511 0.999222
33 1 0.726542 0.651551 0.0516725
545 2 0.9149 0.691819 0.0407943
488 1 0.989775 0.766621 0.00755655
967 2 0.0545522 0.931549 0.0727701
21 1 0.0521138 0.881495 0.0322263
918 2 0.20628 0.986975 0.0344586
9 1 0.356394 0.93418 0.0471264
24 1 0.439959 0.8816 0.0179989
37 1 0.28063 0.842642 0.012332
95 1 0.756996 0.84454 0.03605
29 1 0.640594 0.949106 0.987856
548 2 0.62846 0.930472 0.0662997
507 2 0.784097 0.00241066 0.990132
571 2 0.482943 0.00675125 0.0399809
971 2 0.589829 0.822663 0.0407605
936 2 0.9305 0.933881 0.0080745
100 1 0.931071 0.000622656 0.0399736
549 2 0.895241 0.857141 0.0552603
101 1 0.187254 0.167436 0.10423
985 2 0.0724611 0.258826 0.0927939
555 2 0.224225 1.00045 0.122675
560 2 0.342615 0.164676 0.0950112
498 1 0.39973 0.0510505 0.0704636
600 2 0.514797 0.174105 0.0796089
521 2 0.634944 0.250283 0.0913996
27 1 0.631549 0.0900538 0.0563388
48 1 0.463126 0.0566368 0.108791
527 2 0.466805 0.251263 0.110507
1 1 0.965149 0.141709 0.093476
982 2 0.881964 0.21127 0.0620067
565 2 0.791646 0.119972 0.0840182
532 2 0.0586997 0.488075 0.0454793
85 1 0.0672686 0.409454 0.0828774
77 1 0.21745 0.39363 0.119551
52 1 0.230082 0.283181 0.0833204
552 2 0.502883 0.336255 0.063905
551 2 0.414486 0.456071 0.0910383
125 1 0.349492 0.451554 0.128522
581 2 0.226831 0.469421 0.0829828
73 1 0.679584 0.351724 0.0603527
558 2 0.529861 0.388555 0.110755
519 2 0.543513 0.540067 0.0827643
598 2 0.928951 0.213487 0.121307
35 1 0.79387 0.279984 0.0900251
981 2 0.823538 0.388883 0.0614161
41 1 0.92611 0.331051 0.0871864
957 2 0.118148 0.581939 0.0715527
10 1 0.0985072 0.73882 0.0934924
547 2 0.178395 0.575206 0.106991
517 2 0.246797 0.688378 0.0879089
56 1 0.317421 0.556295 0.0671316
538 2 0.42071 0.578509 0.112562
523 2 0.461484 0.668677 0.0713829
38 1 0.377933 0.732039 0.100221
511 2 0.702959 0.495328 0.0781008
15 1 0.735369 0.703232 0.106307
520 2 0.828023 0.597794 0.0823812
40 1 0.981568 0.541808 0.0766928
502 2 0.941386 0.749239 0.0900121
44 1 0.0763674 0.0281204 0.103548
525 2 0.179998 0.866222 0.0544982
546 2 0.174343 0.878706 0.0990408
57 1 0.251484 0.0293252 0.0874182
23 1 0.299505 0.841371 0.0774189
542 2 0.296763 0.877569 0.129372
543 2 0.409682 0.92199 0.0992795
516 2 0.751637 0.791318 0.0737421
559 2 0.475506 0.830546 0.0704637
96 1 0.739672 0.952058 0.0957124
577 2 0.623943 0.857615 0.0985505
575 2 0.908009 0.989862 0.0794213
59 1 0.84712 0.0169018 0.120135
70 1 0.0745145 0.741775 0.0557045
39 1 0.969672 0.924409 0.108756
513 2 0.830826 0.826305 0.112751
80 1 0.114615 0.161763 0.133494
566 2 0.158694 0.0513001 0.158054
82 1 0.223195 0.166259 0.1762
576 2 0.988868 0.0648652 0.134193
599 2 0.46937 0.140283 0.141058
74 1 0.371193 0.0975924 0.169616
93 1 0.296201 0.127909 0.135272
503 2 0.650137 0.0719519 0.108475
536 2 0.513389 0.0363885 0.170156
99 1 0.673008 0.0879795 0.155754
79 1 0.610914 0.191659 0.128062
34 1 0.761842 0.158021 0.123714
554 2 0.907549 0.120627 0.166941
60 1 0.840168 0.966491 0.16035
150 1 0.846231 0.254614 0.179904
64 1 0.0619583 0.46582 0.117875
590 2 0.173775 0.304969 0.155303
582 2 0.124345 0.441336 0.153756
83 1 0.335625 0.284452 0.125314
87 1 0.404267 0.429813 0.189358
561 2 0.380141 0.269643 0.176986
564 2 0.279555 0.409003 0.165316
50 1 0.688439 0.398368 0.109741
78 1 0.456259 0.327812 0.144103
62 1 0.617914 0.3652 0.144755
531 2 0.612109 0.526038 0.117964
112 1 0.534409 0.34972 0.193201
76 1 0.696533 0.296222 0.183532
533 2 0.83978 0.470097 0.0995921
26 1 0.998764 0.272211 0.156558
604 2 0.795794 0.296425 0.135609
89 1 0.906438 0.39879 0.130521
550 2 0.169817 0.744581 0.129779
553 2 0.116097 0.606882 0.144832
98 1 0.0951714 0.800455 0.158499
556 2 0.490042 0.491974 0.142749
595 2 0.265871 0.56267 0.140009
91 1 0.318674 0.717264 0.135765
570 2 0.496079 0.668512 0.139598
509 2 0.7806 0.543819 0.132118
537 2 0.561595 0.710345 0.105285
116 1 0.632338 0.568594 0.157493
88 1 0.654183 0.733039 0.136221
14 1 0.874058 0.557582 0.163346
587 2 0.969835 0.791227 0.131255
66 1 0.97759 0.60717 0.124023
90 1 0.819777 0.686812 0.143914
94 1 0.987028 0.486151 0.150772
42 1 0.0951174 0.907295 0.132316
105 1 0.0377704 0.963371 0.16488
53 1 0.379808 0.994881 0.142046
541 2 0.247531 0.846071 0.159476
578 2 0.425688 0.899735 0.180246
597 2 0.471962 0.838747 0.128981
92 1 0.553779 0.986897 0.133562
69 1 0.722054 0.849854 0.181223
539 2 0.694075 0.897273 0.1322
589 2 0.567323 0.888481 0.163395
540 2 0.864773 0.816512 0.158939
580 2 0.0625349 0.119302 0.182834
601 2 0.975725 0.250618 0.200198
603 2 0.191344 0.115691 0.241748
610 2 0.209825 0.0674334 0.203216
638 2 0.350513 0.132129 0.204934
134 1 0.619613 0.0671688 0.234762
110 1 0.644122 0.125374 0.197369
127 1 0.477538 0.0481387 0.208121
68 1 0.781179 0.0573889 0.185673
109 1 0.793664 0.182504 0.214142
605 2 0.931186 0.101486 0.204459
535 2 0.156757 0.45903 0.203601
107 1 0.171367 0.290837 0.199845
140 1 0.0484048 0.353693 0.225222
632 2 0.305518 0.575852 0.18719
157 1 0.517039 0.190618 0.189566
611 2 0.425292 0.305019 0.216762
617 2 0.386631 0.498389 0.222277
651 2 0.283083 0.375273 0.223969
608 2 0.538713 0.398159 0.238947
586 2 0.544426 0.215254 0.230728
557 2 0.697414 0.463774 0.193564
671 2 0.739792 0.379852 0.221421
54 1 0.0355235 0.382863 0.17859
585 2 0.924632 0.317929 0.260353
81 1 0.878077 0.341435 0.212542
84 1 0.814115 0.403267 0.16474
104 1 0.844187 0.500692 0.234748
111 1 0.0896872 0.552727 0.177029
622 2 0.136791 0.755091 0.19763
606 2 0.0914155 0.534549 0.23009
618 2 0.0199056 0.642889 0.203941
591 2 0.260176 0.602621 0.222864
122 1 0.302403 0.725468 0.192634
141 1 0.417663 0.601704 0.167208
613 2 0.440952 0.719504 0.215082
607 2 0.651555 0.488381 0.2493
72 1 0.55925 0.505343 0.190027
67 1 0.544203 0.668436 0.185015
592 2 0.647326 0.630138 0.210777
635 2 0.836246 0.545348 0.198928
615 2 0.968717 0.485148 0.210598
139 1 0.720531 0.651246 0.175868
594 2 0.999111 0.678785 0.156657
108 1 0.976722 0.816976 0.183658
596 2 0.136399 0.903612 0.195122
117 1 0.0615077 0.0251438 0.213387
567 2 0.190156 0.953508 0.230458
97 1 0.413608 0.758424 0.165063
583 2 0.280999 0.971548 0.180173
118 1 0.362559 0.861565 0.219926
562 2 0.505683 0.896578 0.220271
572 2 0.630632 0.953486 0.19736
144 1 0.593847 0.784838 0.200225
530 2 0.909487 0.953357 0.19557
55 1 0.774243 0.912477 0.213698
113 1 0.727537 0.776915 0.224203
563 2 0.841641 0.724553 0.195924
648 2 0.870576 0.802422 0.231498
128 1 0.0543055 0.19337 0.225881
602 2 0.17895 0.282613 0.246138
646 2 0.130655 0.167863 0.278048
163 1 0.276339 0.164628 0.269426
153 1 0.324756 0.987601 0.248346
201 1 0.336941 0.296323 0.288621
177 1 0.385146 0.102854 0.290439
131 1 0.429778 0.096808 0.245554
124 1 0.660839 0.155285 0.26857
137 1 0.478943 0.206547 0.270923
653 2 0.679869 0.99332 0.27546
579 2 0.774911 0.043784 0.23834
569 2 0.907441 0.158326 0.238276
151 1 0.817947 0.0895798 0.279245
175 1 0.0423538 0.0534666 0.300018
614 2 0.892277 0.971199 0.275413
145 1 0.0259083 0.324793 0.293361
636 2 0.24528 0.398992 0.27268
661 2 0.182466 0.313822 0.299391
626 2 0.35183 0.214369 0.238133
612 2 0.503715 0.36449 0.284366
650 2 0.380705 0.431879 0.30922
640 2 0.627374 0.305019 0.309083
138 1 0.659661 0.344957 0.271853
634 2 0.787512 0.414542 0.258606
172 1 1.00118 0.198122 0.271933
623 2 0.771904 0.221862 0.251023
119 1 0.917175 0.457532 0.28669
120 1 0.0652095 0.681712 0.236625
166 1 0.154417 0.546579 0.266523
146 1 0.320156 0.551321 0.259746
624 2 0.1847 0.704178 0.273559
675 2 0.381832 0.381308 0.252583
142 1 0.437276 0.663636 0.258989
114 1 0.464902 0.504978 0.271773
616 2 0.28004 0.777091 0.242973
637 2 0.655926 0.481459 0.290113
665 2 0.745935 0.630832 0.244689
115 1 0.602734 0.657906 0.262033
670 2 0.519267 0.574668 0.231844
123 1 0.73058 0.719446 0.274095
630 2 0.570474 0.647453 0.30211
609 2 0.915342 0.667448 0.240673
135 1 0.998548 0.509988 0.261341
169 1 0.804564 0.579489 0.278814
620 2 0.987895 0.649511 0.284602
102 1 0.0503822 0.998723 0.258234
152 1 0.979069 0.869161 0.297341
121 1 0.0540106 0.779491 0.266677
642 2 0.0390652 0.854908 0.224999
672 2 0.194066 0.865516 0.263315
696 2 0.257785 0.926267 0.297142
673 2 0.431549 0.825627 0.311232
568 2 0.207861 0.0186329 0.274666
103 1 0.346002 0.761744 0.276788
593 2 0.571841 0.76655 0.240125
647 2 0.59794 0.911153 0.248009
164 1 0.536064 0.779777 0.279629
149 1 0.444899 0.871523 0.258866
160 1 0.667427 0.854215 0.283988
588 2 0.77726 0.892353 0.249779
667 2 0.920469 0.996702 0.23563
621 2 0.878114 0.780481 0.269086
625 2 0.797812 0.867596 0.302075
176 1 0.188584 0.0559327 0.309616
706 2 0.253515 0.0871425 0.348259
182 1 0.140828 0.2166 0.33129
700 2 0.0593409 0.0510538 0.33919
197 1 0.300218 0.203546 0.316176
231 1 0.363182 0.998973 0.323659
678 2 0.43382 0.150097 0.328687
658 2 0.512638 -0.000874674 0.318703
702 2 0.419015 0.0181687 0.362598
183 1 0.562407 0.141744 0.300649
627 2 0.587231 0.131498 0.340461
126 1 0.738347 0.175136 0.309731
180 1 0.8651 0.0604908 0.31396
655 2 0.771789 0.0259882 0.348998
185 1 0.857001 0.193771 0.343772
680 2 0.998669 0.187489 0.318536
657 2 0.226422 0.352184 0.336289
106 1 0.0509564 0.339273 0.33324
584 2 0.0452238 0.479078 0.311287
662 2 0.472276 0.292531 0.317266
148 1 0.532955 0.476686 0.315558
167 1 0.290291 0.496751 0.336734
686 2 0.554554 0.282232 0.356056
133 1 0.71622 0.281708 0.341323
158 1 0.63645 0.417283 0.342499
652 2 0.879874 0.221836 0.296207
161 1 0.785495 0.392731 0.295884
699 2 0.913096 0.363476 0.319442
645 2 0.140994 0.516347 0.339399
641 2 0.157647 0.673739 0.31407
168 1 0.243499 0.544248 0.306013
619 2 0.39899 0.623532 0.302958
171 1 0.285598 0.661234 0.338958
143 1 0.448914 0.554767 0.343889
198 1 0.545999 0.740965 0.34657
639 2 0.685782 0.733867 0.317592
643 2 0.596507 0.595198 0.34411
170 1 0.703782 0.702434 0.359415
244 1 0.699321 0.529443 0.371049
129 1 0.726777 0.587833 0.323958
130 1 0.871729 0.554569 0.314156
191 1 0.99959 0.595129 0.337376
629 2 0.86424 0.713294 0.304712
207 1 0.202055 0.946548 0.336578
247 1 0.145321 0.840123 0.313252
649 2 0.0140807 0.745063 0.31729
196 1 0.0356727 0.890486 0.342246
720 2 0.1101 0.731374 0.348464
691 2 0.338539 0.857088 0.343324
697 2 0.289517 0.768039 0.313599
178 1 0.502586 0.906324 0.348706
147 1 0.508512 0.984627 0.277366
154 1 0.58469 0.855988 0.320503
628 2 0.690986 0.00252577 0.316216
155 1 0.894962 0.925874 0.329413
195 1 0.800708 0.814436 0.337563
212 1 0.215223 0.0769498 0.417916
677 2 0.118991 0.106871 0.370201
736 2 0.223523 0.259201 0.366923
211 1 0.120461 0.230764 0.396965
690 2 0.0802131 0.0459653 0.40521
187 1 0.393071 0.21696 0.362864
682 2 0.293722 0.907948 0.386532
188 1 0.318014 0.10035 0.385237
683 2 0.417419 0.0888494 0.412397
633 2 0.505048 0.135477 0.375262
165 1 0.696493 0.141191 0.366956
189 1 0.614058 0.238363 0.402946
679 2 0.972898 0.0698029 0.370188
184 1 0.766617 0.265347 0.386904
656 2 0.965601 0.254005 0.368936
179 1 0.830052 0.0816344 0.395138
687 2 0.117216 0.377423 0.36988
688 2 0.160723 0.395233 0.405137
136 1 0.360996 0.396328 0.359906
213 1 0.290934 0.30928 0.396773
162 1 0.381332 0.447759 0.399251
692 2 0.454745 0.316434 0.38321
664 2 0.611696 0.372274 0.387561
217 1 0.518792 0.443377 0.361965
669 2 0.546126 0.517495 0.392456
693 2 0.83614 0.401822 0.3772
710 2 0.978351 0.302619 0.418066
156 1 0.00837539 0.437632 0.397826
132 1 0.23573 0.507055 0.368874
203 1 0.231986 0.537614 0.414328
216 1 0.0464452 0.559298 0.372095
220 1 0.182326 0.645049 0.377488
631 2 0.363075 0.590844 0.372745
173 1 0.606334 0.643095 0.379246
723 2 0.631514 0.687479 0.414449
718 2 0.64705 0.505237 0.42212
644 2 0.854934 0.614124 0.354396
666 2 0.975389 0.429865 0.361378
199 1 0.952813 0.762186 0.350122
186 1 0.890243 0.523794 0.401916
194 1 0.792179 0.477472 0.346464
275 1 0.782864 0.621479 0.393803
205 1 0.936626 0.658629 0.390409
221 1 0.202029 0.824883 0.366329
745 2 0.141462 0.734403 0.422177
660 2 0.105714 0.929406 0.37602
225 1 0.082931 0.753905 0.386962
223 1 0.346176 0.744884 0.36378
725 2 0.29721 0.73302 0.401034
202 1 0.469455 0.884605 0.388377
174 1 0.476835 0.736216 0.394858
746 2 0.241352 0.902225 0.420557
190 1 0.657622 0.870691 0.350458
676 2 0.64579 0.814427 0.386171
698 2 0.622833 0.00718383 0.367238
703 2 0.588061 0.96164 0.401391
654 2 0.904911 0.933028 0.367658
200 1 0.941548 0.842154 0.395766
674 2 0.808475 0.81116 0.376111
724 2 0.761471 0.954346 0.387872
209 1 0.943534 0.990391 0.422941
236 1 0.0965983 0.0142538 0.447149
232 1 0.304843 0.214183 0.425597
261 1 0.213855 0.115067 0.456867
235 1 0.0673705 0.188643 0.437721
707 2 0.328876 0.0277516 0.442213
214 1 0.458748 0.98825 0.452542
684 2 0.444624 0.160175 0.467935
238 1 0.440934 0.228854 0.413871
233 1 0.358175 0.0327742 0.481286
159 1 0.64823 0.103699 0.406982
705 2 0.657914 0.152774 0.464147
717 2 0.549324 0.136853 0.43735
228 1 0.614173 0.978222 0.438118
715 2 0.83911 0.103424 0.439604
659 2 0.847193 0.240333 0.420803
192 1 0.0760556 0.443928 0.432094
711 2 0.978371 0.300728 0.461985
272 1 0.173928 0.319651 0.448332
242 1 0.29028 0.378814 0.428261
239 1 0.455191 0.328544 0.447554
714 2 0.351005 0.419383 0.461543
716 2 0.521009 0.433745 0.420554
689 2 0.707663 0.294028 0.432086
739 2 0.623353 0.385046 0.454851
240 1 0.7393 0.47874 0.455636
734 2 0.550404 0.259953 0.470545
181 1 0.973554 0.151905 0.40691
709 2 0.778749 0.413213 0.415556
740 2 0.893303 0.449081 0.478616
230 1 0.838331 0.228454 0.460848
222 1 0.0763348 0.601029 0.41591
296 1 0.198184 0.521164 0.449092
206 1 0.0533078 0.709494 0.453084
193 1 0.442216 0.61359 0.415235
237 1 0.35846 0.534212 0.43948
721 2 0.511933 0.523705 0.455769
663 2 0.66731 0.612838 0.45487
668 2 0.666993 0.761593 0.462967
204 1 0.53711 0.682505 0.442529
737 2 0.801806 0.59569 0.42962
215 1 0.917408 0.447389 0.435933
224 1 0.800212 0.763093 0.450435
767 2 0.997821 0.573431 0.446943
246 1 0.942377 0.714558 0.424868
695 2 0.253404 0.660037 0.448431
257 1 0.137076 0.854542 0.455893
681 2 0.075106 0.871861 0.416903
208 1 0.480317 0.881735 0.426022
722 2 0.36988 0.741079 0.434267
708 2 0.343146 0.863438 0.457855
727 2 0.489461 0.825104 0.459594
229 1 0.620554 0.815572 0.431348
749 2 0.747702 0.982098 0.425902
719 2 0.77667 0.804039 0.413639
243 1 0.759482 0.868763 0.483597
755 2 0.955845 0.848156 0.448585
251 1 0.896555 0.977404 0.462814
732 2 0.112112 0.174835 0.49705
753 2 0.280051 0.113297 0.513344
264 1 0.445689 0.0582878 0.524041
729 2 0.563536 0.0568996 0.479035
778 2 0.617027 0.222064 0.502774
250 1 0.728098 0.0202866 0.464351
284 1 0.825874 0.0855056 0.526497
210 1 0.815384 0.105113 0.486416
759 2 0.773179 0.229909 0.516146
265 1 0.977984 0.101359 0.464553
260 1 0.915021 0.291756 0.495717
321 1 0.966487 0.127161 0.512247
262 1 0.0321281 0.495683 0.480745
765 2 0.0752375 0.333277 0.496391
747 2 0.110328 0.494284 0.510415
742 2 0.223736 0.290934 0.502028
712 2 0.192049 0.437842 0.482685
234 1 0.289604 0.248382 0.467433
738 2 0.426583 0.195936 0.504955
792 2 0.328353 0.406854 0.501553
685 2 0.735432 0.336127 0.483717
269 1 0.429137 0.501787 0.520316
779 2 0.477823 0.417358 0.483613
744 2 0.700003 0.439693 0.524597
762 2 0.960018 0.438278 0.518329
761 2 0.832308 0.388072 0.515814
273 1 0.0416577 0.66313 0.490284
267 1 0.227282 0.603787 0.484335
766 2 0.264533 0.5213 0.517024
741 2 0.342344 0.752312 0.480581
713 2 0.396908 0.581538 0.477754
752 2 0.242582 0.719397 0.518456
218 1 0.523359 0.685894 0.477466
694 2 0.610261 0.552415 0.489242
249 1 0.46878 0.654684 0.513577
748 2 0.656187 0.716481 0.502296
300 1 0.776369 0.63615 0.483444
245 1 0.836884 0.529783 0.509743
774 2 0.908921 0.675311 0.465546
735 2 0.176986 0.0292836 0.490545
780 2 0.0830876 0.940384 0.524401
278 1 0.0896998 0.808722 0.493282
266 1 0.224219 0.888054 0.483329
751 2 0.195496 0.864512 0.542887
733 2 0.43063 0.922626 0.491199
227 1 0.37107 0.8374 0.521996
255 1 0.581004 0.98078 0.511223
772 2 0.597581 0.902686 0.477026
279 1 0.541697 0.804003 0.509335
726 2 0.0496139 0.952259 0.481091
701 2 0.912799 0.832905 0.486114
704 2 0.803181 0.774142 0.511868
799 2 0.930279 0.971681 0.505275
287 1 0.187706 0.0879026 0.540003
256 1 0.0316832 0.0923478 0.550322
788 2 0.176779 0.271325 0.564764
796 2 0.312751 0.0404445 0.566787
731 2 0.306807 0.959901 0.515404
310 1 0.454731 0.134767 0.563135
259 1 0.399739 0.329735 0.527457
760 2 0.405526 0.0775341 0.599249
757 2 0.341447 0.235092 0.549516
289 1 0.516249 0.19447 0.535652
277 1 0.541667 0.191199 0.592081
804 2 0.669246 0.124623 0.527291
290 1 0.739948 0.129819 0.561539
776 2 0.85669 0.210396 0.580681
791 2 0.915971 0.238073 0.53993
280 1 0.889425 0.0735525 0.562236
763 2 0.0831237 0.215218 0.533909
298 1 0.229369 0.550653 0.550402
286 1 0.0289945 0.334805 0.579612
295 1 0.0806068 0.372898 0.542849
728 2 0.24044 0.391567 0.532846
349 1 0.171343 0.407086 0.579886
832 2 0.335231 0.3711 0.58541
764 2 0.469639 0.314187 0.571528
263 1 0.37701 0.450002 0.555019
270 1 0.660249 0.294379 0.54224
294 1 0.657121 0.252592 0.578184
219 1 0.549008 0.385618 0.53172
285 1 0.646029 0.412435 0.565036
790 2 0.788738 0.321389 0.559678
366 1 0.794657 0.486894 0.554969
274 1 0.929683 0.389664 0.552638
320 1 0.865601 0.386643 0.589371
293 1 0.248275 0.740841 0.559687
775 2 0.101339 0.629977 0.529225
797 2 0.114921 0.672609 0.571005
299 1 0.0804836 0.508042 0.563308
248 1 0.402734 0.595881 0.553481
253 1 0.390403 0.738871 0.604644
322 1 0.553323 0.754258 0.548508
769 2 0.521171 0.495571 0.558031
254 1 0.610665 0.568861 0.526404
226 1 0.645473 0.633348 0.567838
241 1 0.956106 0.571498 0.540446
770 2 0.950317 0.688796 0.517536
750 2 0.845226 0.621303 0.570052
314 1 0.728493 0.673405 0.533585
283 1 0.215593 0.794244 0.596792
800 2 0.190145 0.96895 0.568521
793 2 0.0626897 0.775161 0.532798
743 2 0.4014 0.756117 0.559006
258 1 0.328849 0.873531 0.574011
348 1 0.458423 0.872511 0.592853
823 2 0.672323 0.843625 0.527646
309 1 0.481798 0.922011 0.550303
282 1 0.622765 0.886641 0.573732
308 1 0.777763 0.954873 0.539716
783 2 0.748074 0.789992 0.56542
730 2 0.913279 0.884677 0.534422
306 1 0.784314 0.939876 0.577388
785 2 0.986832 0.945564 0.572842
754 2 0.905797 0.766674 0.562745
291 1 0.0994121 0.236588 0.597683
781 2 0.99024 0.138718 0.591725
802 2 0.203494 0.113124 0.585981
810 2 0.0368239 0.226139 0.639719
771 2 0.341609 0.221039 0.593046
758 2 0.472683 0.959642 0.629648
756 2 0.356695 0.170755 0.630733
252 1 0.271762 0.00866628 0.607029
789 2 0.686377 0.101488 0.596532
809 2 0.565424 0.0133599 0.597442
335 1 0.553435 0.109367 0.626471
824 2 0.610236 0.0263929 0.558024
826 2 0.698182 0.99096 0.632068
281 1 0.824777 0.98307 0.613027
305 1 0.902881 0.13382 0.624712
331 1 0.949038 0.277745 0.606445
817 2 0.105572 0.386374 0.626028
801 2 0.0476592 0.486112 0.65452
347 1 0.192418 0.217526 0.634697
268 1 0.448226 0.298105 0.62858
787 2 0.295723 0.331636 0.620924
782 2 0.35865 0.516422 0.653425
319 1 0.516044 0.489639 0.59452
333 1 0.356199 0.337531 0.661042
794 2 0.591704 0.33877 0.604516
773 2 0.665275 0.444785 0.627914
834 2 0.425123 0.445178 0.625519
311 1 0.777193 0.288591 0.614711
784 2 0.714831 0.153326 0.627583
840 2 0.802867 0.397974 0.64449
811 2 0.949046 0.404672 0.63125
297 1 0.957461 0.654947 0.594608
795 2 0.0231602 0.569255 0.623295
315 1 0.990782 0.472142 0.597919
341 1 0.164276 0.548305 0.609245
768 2 0.474816 0.627479 0.587146
292 1 0.341035 0.555427 0.614217
342 1 0.274109 0.648359 0.589218
777 2 0.475894 0.796281 0.634733
328 1 0.202282 0.68927 0.622175
303 1 0.596239 0.583382 0.609676
818 2 0.469851 0.610411 0.633536
324 1 0.658078 0.77122 0.641589
313 1 0.724602 0.527658 0.590391
813 2 0.707421 0.607683 0.642066
845 2 0.840767 0.520826 0.618378
325 1 0.741712 0.678826 0.60024
825 2 0.881571 0.70017 0.627669
822 2 0.09983 0.944063 0.597516
798 2 0.0928321 0.826806 0.573552
821 2 0.152197 0.953075 0.635849
326 1 0.374021 0.81969 0.668824
842 2 0.326906 0.903777 0.636371
288 1 0.574372 0.751096 0.589178
808 2 0.713224 0.870514 0.604489
374 1 0.594096 0.887506 0.621582
843 2 0.787998 0.837672 0.642881
814 2 0.0662573 0.807702 0.614499
271 1 0.977826 0.962871 0.621318
350 1 0.872744 0.850195 0.606185
850 2 0.870278 0.984397 0.64722
302 1 0.101659 0.0932461 0.617341
332 1 0.129615 0.180975 0.672751
357 1 0.0441016 0.330089 0.666425
276 1 0.365042 0.0142205 0.657481
372 1 0.476783 0.194603 0.660905
330 1 0.469731 0.256821 0.695372
803 2 0.570855 0.0172375 0.65549
365 1 0.626293 0.295139 0.639718
301 1 0.636527 0.151463 0.660672
835 2 0.611771 0.243436 0.717693
334 1 0.56342 0.125889 0.69513
846 2 0.947515 0.180005 0.670586
304 1 0.802462 0.122374 0.663301
390 1 0.756487 0.139595 0.703836
829 2 0.231743 0.287081 0.685712
812 2 0.246911 0.461358 0.693086
416 1 0.110414 0.419333 0.69851
323 1 0.386011 0.400581 0.701685
833 2 0.289971 0.163673 0.664994
807 2 0.20226 0.384498 0.657313
339 1 0.561265 0.360345 0.679278
340 1 0.704521 0.45323 0.680278
816 2 0.877073 0.258447 0.644811
376 1 0.738428 0.265498 0.67818
871 2 0.865247 0.352761 0.680995
362 1 0.115647 0.565708 0.686059
815 2 0.0814773 0.744071 0.648155
387 1 0.187609 0.694067 0.677035
862 2 0.210194 0.526905 0.64795
368 1 0.233612 0.810365 0.651493
317 1 0.291096 0.667276 0.654144
318 1 0.444738 0.622125 0.715378
867 2 0.297795 0.59188 0.702807
844 2 0.575075 0.598048 0.694261
338 1 0.552995 0.495378 0.651583
837 2 0.451519 0.513866 0.684339
343 1 0.571295 0.701924 0.662582
839 2 0.769537 0.704861 0.676761
860 2 0.946383 0.650362 0.666204
848 2 0.855354 0.535601 0.657929
861 2 0.965423 0.474895 0.686123
849 2 0.0322963 0.0633759 0.656191
872 2 0.323827 0.921254 0.69643
346 1 0.298431 0.754567 0.699497
820 2 0.21514 0.0233067 0.670304
841 2 0.166017 0.865199 0.681732
847 2 0.43174 0.674569 0.678222
327 1 0.461336 0.958478 0.69117
819 2 0.554103 0.867388 0.668008
316 1 0.742061 0.883246 0.676294
873 2 0.614438 0.87583 0.70831
329 1 0.697469 0.0298896 0.684668
355 1 0.872302 0.83158 0.684025
865 2 0.962371 0.820885 0.650498
855 2 0.00844867 0.922224 0.678091
377 1 0.0588473 0.242466 0.705562
786 2 0.228565 0.13525 0.704663
830 2 0.17501 0.0929511 0.756281
857 2 0.224491 0.232957 0.749291
827 2 0.396319 0.104041 0.68852
854 2 0.316598 0.110085 0.743646
353 1 0.479749 0.147846 0.757937
397 1 0.478581 0.98118 0.772917
359 1 0.329912 0.242738 0.717025
909 2 0.554801 0.0387797 0.732104
853 2 0.78935 0.204431 0.741183
358 1 0.844141 0.983644 0.685457
864 2 0.976044 0.0742056 0.701251
876 2 0.089504 0.104557 0.725088
356 1 0.869347 0.0662275 0.734604
806 2 0.11029 0.337569 0.738613
805 2 0.00961438 0.214899 0.74374
828 2 0.214652 0.418059 0.764193
307 1 0.491109 0.315891 0.731517
851 2 0.304964 0.367933 0.735928
364 1 0.421552 0.480262 0.739077
360 1 0.546828 0.450769 0.713436
889 2 0.670911 0.388555 0.73602
352 1 0.906122 0.210467 0.711935
863 2 0.971653 0.361589 0.720479
859 2 0.814544 0.336386 0.718572
361 1 0.990757 0.431321 0.757042
386 1 0.817675 0.458299 0.742486
385 1 0.894228 0.315367 0.764539
424 1 0.0847021 0.531772 0.72396
858 2 0.193537 0.597224 0.773123
398 1 0.0483051 0.73996 0.740285
831 2 0.177947 0.656958 0.720807
312 1 0.214768 0.486193 0.734337
400 1 0.490434 0.576421 0.767855
337 1 0.481405 0.755136 0.762331
373 1 0.316922 0.648054 0.740458
838 2 0.710908 0.670174 0.715367
375 1 0.747532 0.587337 0.753966
370 1 0.690441 0.513843 0.713973
893 2 0.608552 0.621516 0.740801
410 1 0.635545 0.498098 0.763411
891 2 0.997518 0.645017 0.703133
345 1 0.854889 0.543586 0.701554
473 1 0.915536 0.585094 0.737005
875 2 0.869872 0.717477 0.721522
881 2 0.231034 0.983225 0.727007
371 1 0.18614 0.819214 0.715224
896 2 0.0957366 0.949426 0.749228
874 2 0.400872 0.789202 0.722376
367 1 0.200814 0.728484 0.756434
886 2 0.394937 0.0119685 0.72876
898 2 0.571179 0.729175 0.713749
900 2 0.517414 0.880286 0.737242
354 1 0.704715 0.984461 0.72545
404 1 0.716459 0.731074 0.753315
423 1 0.77112 0.850023 0.717214
836 2 1.00314 0.796544 0.706101
379 1 0.959195 0.936174 0.718802
396 1 0.104726 0.0042036 0.697403
880 2 0.0588805 0.0950694 0.819514
412 1 0.286963 0.183572 0.81263
910 2 0.160039 0.179494 0.78717
852 2 0.353597 0.0710535 0.777078
882 2 0.426608 0.127473 0.804279
393 1 0.34166 0.249618 0.767095
378 1 0.362872 0.99094 0.812667
382 1 0.549595 0.0214845 0.80846
389 1 0.599765 0.102626 0.77537
924 2 0.478127 0.261347 0.786074
414 1 0.620025 0.241757 0.758406
877 2 0.0627763 0.0264686 0.785854
869 2 0.749587 0.0406572 0.768586
405 1 0.649682 0.160692 0.812121
879 2 0.912572 0.14672 0.76826
384 1 0.00218572 0.211365 0.794991
922 2 0.814089 0.10837 0.810417
369 1 0.24298 0.321292 0.792188
351 1 0.0759834 0.340435 0.782926
932 2 0.148103 0.28732 0.821841
443 1 0.199648 0.477025 0.800145
363 1 0.012443 0.48955 0.790059
892 2 0.390398 0.334954 0.812219
884 2 0.567558 0.355966 0.803736
887 2 0.508538 0.419483 0.76607
408 1 0.324865 0.537198 0.765945
930 2 0.752067 0.392273 0.774973
964 2 0.715923 0.312419 0.820627
391 1 0.739007 0.485845 0.804709
381 1 0.945693 0.359707 0.805105
460 1 0.787827 0.257164 0.787481
885 2 0.875286 0.537302 0.776622
940 2 0.084134 0.590611 0.81061
406 1 0.972652 0.886855 0.773603
942 2 0.193119 0.750289 0.809991
913 2 0.279861 0.612182 0.80908
917 2 0.3563 0.665117 0.779248
866 2 0.477908 0.625914 0.818051
943 2 0.324845 0.750607 0.830433
933 2 0.395788 0.485024 0.808002
449 1 0.581665 0.516886 0.800425
870 2 0.6054 0.701745 0.787998
394 1 0.673654 0.618392 0.816104
422 1 0.803449 0.667243 0.79276
344 1 0.890991 0.732015 0.764338
411 1 0.925972 0.557962 0.820024
441 1 0.0275548 0.626913 0.762132
497 1 0.976492 0.693934 0.796825
413 1 0.219128 0.0132034 0.804655
392 1 0.100248 0.902752 0.799733
856 2 0.917322 0.838235 0.809765
401 1 0.0858027 0.77503 0.779482
430 1 0.364925 0.888016 0.753367
897 2 0.219153 0.907165 0.770722
383 1 0.331315 0.815317 0.79289
919 2 0.549188 0.839722 0.787327
336 1 0.79228 0.746324 0.830588
868 2 0.604261 0.77981 0.82951
895 2 0.647707 0.93285 0.761439
920 2 0.716465 0.942169 0.799353
425 1 0.902713 0.00862183 0.789961
972 2 0.789128 0.820868 0.791425
899 2 0.829538 0.906614 0.748523
431 1 0.185978 0.22633 0.855257
426 1 0.0473815 0.329877 0.863066
921 2 0.195735 0.080189 0.841798
388 1 0.34732 0.090052 0.844551
434 1 0.348511 0.925363 0.85471
941 2 0.482544 0.163399 0.83583
949 2 0.470245 0.192962 0.870162
380 1 0.496387 0.0207547 0.844446
481 1 0.629717 0.0842377 0.85833
975 2 0.765969 0.0839118 0.843203
904 2 0.617273 0.942696 0.880149
990 2 0.887049 0.251578 0.827168
499 1 0.0467973 0.0790437 0.860775
937 2 0.154385 0.428573 0.865563
901 2 0.0937939 0.445843 0.827994
984 2 0.337614 0.264155 0.84316
429 1 0.294022 0.440089 0.838388
445 1 0.46858 0.444351 0.848622
883 2 0.570961 0.283583 0.843647
888 2 0.750574 0.224167 0.850955
935 2 0.613219 0.456566 0.836273
960 2 0.734716 0.387369 0.860118
974 2 0.568397 0.425443 0.87774
435 1 0.943558 0.497515 0.854254
407 1 0.0658197 0.573837 0.86795
417 1 0.888263 0.334377 0.874591
944 2 0.839019 0.394221 0.830931
902 2 0.932926 0.691664 0.841719
912 2 0.178204 0.644281 0.84272
894 2 0.354758 0.569898 0.854883
939 2 0.467155 0.744686 0.84669
458 1 0.429742 0.501775 0.881035
915 2 0.596605 0.599688 0.852108
931 2 0.74808 0.665709 0.86357
914 2 0.601846 0.746029 0.878865
890 2 0.759333 0.52883 0.841924
415 1 0.704543 0.502262 0.886236
395 1 0.877391 0.587825 0.875312
911 2 0.0725322 0.81122 0.834786
916 2 0.979151 0.954243 0.838836
452 1 0.196717 0.770352 0.865987
476 1 0.191934 0.929301 0.84958
968 2 0.163541 0.0267602 0.883103
428 1 0.0545199 0.888906 0.868484
923 2 0.4616 0.859127 0.818331
925 2 0.352269 0.787068 0.869971
399 1 0.653766 0.943329 0.839597
403 1 0.509095 0.877573 0.859032
472 1 0.745569 0.794629 0.893975
420 1 0.87904 0.83383 0.857407
421 1 0.818023 0.958573 0.82598
459 1 0.747954 0.910092 0.863987
451 1 0.889377 0.998956 0.868401
908 2 0.148978 0.272321 0.900331
457 1 0.0832984 0.037132 0.914903
983 2 0.0171449 0.197494 0.887959
878 2 0.3012 0.207723 0.882305
483 1 0.268036 0.118949 0.923503
934 2 0.307611 0.060427 0.882064
928 2 0.450655 0.167213 0.91149
953 2 0.771323 0.0880366 0.888718
409 1 0.575021 0.125268 0.894215
479 1 0.888112 0.162022 0.934505
976 2 0.892411 0.156223 0.868389
954 2 0.945051 0.0722167 0.907905
418 1 0.288039 0.364491 0.884551
470 1 0.220424 0.393415 0.921356
436 1 0.127987 0.487803 0.904654
906 2 0.986849 0.513998 0.927
25 1 0.0433396 0.350454 0.919756
440 1 0.456517 0.322951 0.889418
988 2 0.328459 0.273077 0.917564
439 1 0.342666 0.552504 0.916476
2 1 0.514475 0.261568 0.935616
462 1 0.612681 0.257616 0.880314
480 1 0.763065 0.204221 0.912441
965 2 0.726353 0.365148 0.901259