ITEM: TIMESTEP
18120
ITEM: NUMBER OF ATOMS
1000
ITEM: BOX BOUNDS pp pp pp
0.0000000000000000e+00 6.2996052494743662e+00
0.0000000000000000e+00 6.2996052494743662e+00
0.0000000000000000e+00 2.5198420997897465e+01
ITEM: ATOMS id type xs ys zs
51 1 0.14897 0.143735 0.0557158
512 2 0.221258 0.123564 0.0170071
471 1 0.0536891 0.244975 0.0336733
967 2 0.0178819 0.0394399 0.0526571
959 2 0.060374 0.101679 0.0165983
526 2 0.37398 0.0442682 0.0162549
34 1 0.378364 0.191188 0.0211035
560 2 0.264266 0.028926 0.0512499
17 1 0.372261 0.193083 0.0619663
507 2 0.567622 0.0725038 0.0389649
27 1 0.635808 0.216507 0.0366262
4 1 0.716619 0.0565882 0.995916
24 1 0.667939 0.219912 0.995797
518 2 0.793842 0.068303 0.0267043
918 2 0.870041 0.210671 0.0379448
488 1 0.922461 0.127993 0.012709
498 1 0.880878 0.0431363 0.0551411
482 1 0.132381 0.393781 0.0358183
92 1 0.238217 0.247461 0.0388352
48 1 0.242973 0.527498 0.0383582
994 2 0.00331125 0.447403 0.0236214
511 2 0.375776 0.331505 0.000262214
527 2 0.466101 0.311521 0.0320159
63 1 0.399998 0.471778 0.0257456
52 1 0.314913 0.362603 0.0440629
477 1 0.585565 0.414642 0.0459163
977 2 0.743285 0.319584 0.0397817
503 2 0.610292 0.338411 0.0119135
79 1 0.529235 0.489658 0.0081537
73 1 0.858683 0.488927 0.012316
529 2 0.845219 0.4536 0.0540007
16 1 0.891499 0.351493 0.0278884
496 1 0.772386 0.343904 0.999875
454 1 0.1522 0.547906 0.00712283
139 1 0.0661624 0.704198 0.0208674
85 1 0.0881036 0.576238 0.042189
9 1 0.198193 0.69288 0.0569509
514 2 0.382959 0.64323 0.0404713
478 1 0.272294 0.681312 0.015827
15 1 0.483701 0.555718 0.0668517
520 2 0.693836 0.537983 0.0313495
33 1 0.530241 0.626006 0.0262587
6 1 0.620022 0.639886 0.0533443
487 1 0.92215 0.592156 0.041067
987 2 0.901816 0.751923 0.0335261
49 1 0.769087 0.627297 0.0594566
508 2 0.809234 0.635175 0.0151583
951 2 0.144979 0.93728 0.0509925
70 1 0.18245 0.820253 0.0295537
979 2 0.146864 0.974405 0.00908406
20 1 0.0403179 0.862537 0.990844
23 1 0.421763 0.750948 0.0217036
555 2 0.35496 0.87881 0.0359157
947 2 0.591115 0.793692 0.0158752
36 1 0.663636 0.934895 0.0247738
516 2 0.508996 0.922788 0.0267523
37 1 0.867648 0.896593 0.0288296
61 1 0.749472 0.77592 0.0298601
597 2 0.0178974 0.927147 0.0273425
581 2 0.177013 0.142904 0.101791
577 2 0.0230869 0.081665 0.10348
559 2 0.0709124 0.246264 0.1077
548 2 0.441201 0.0199163 0.0612984
513 2 0.333912 0.0897095 0.0885669
468 1 0.475975 0.0237299 0.107796
982 2 0.558495 0.138861 0.0974796
59 1 0.65288 0.99912 0.109096
525 2 0.713587 0.036086 0.0587698
554 2 0.684518 0.207549 0.0830684
566 2 0.705259 0.146988 0.116158
528 2 0.834874 0.15099 0.0818201
41 1 0.00123543 0.194277 0.0683115
510 2 0.0136461 0.350583 0.0625896
546 2 0.170016 0.291396 0.0748971
65 1 0.024068 0.498148 0.0669593
575 2 0.0417597 0.411755 0.102668
57 1 0.206 0.412806 0.103671
558 2 0.451674 0.244566 0.101513
552 2 0.447356 0.378526 0.0754085
89 1 0.326702 0.303071 0.0818721
62 1 0.38386 0.464072 0.101496
565 2 0.687604 0.349469 0.075342
561 2 0.536951 0.277849 0.066123
56 1 0.593314 0.49079 0.115127
576 2 0.641435 0.286348 0.115875
71 1 0.859932 0.312177 0.0673556
485 1 0.879553 0.394643 0.0966125
532 2 0.0466678 0.74626 0.0611064
7 1 0.185879 0.735613 0.0933821
594 2 0.0381082 0.638598 0.089029
985 2 0.12386 0.561178 0.11579
28 1 0.20534 0.56026 0.0823579
533 2 0.473528 0.591625 0.102037
538 2 0.348606 0.655713 0.0870673
537 2 0.482194 0.710443 0.0635657
521 2 0.680885 0.519198 0.0716091
545 2 0.616816 0.645807 0.099732
86 1 0.777682 0.683104 0.106856
35 1 0.88206 0.550207 0.0873879
40 1 0.896507 0.717364 0.0785874
542 2 0.274151 0.841366 0.0731241
98 1 0.170944 0.865518 0.113009
53 1 0.214015 0.991773 0.0963585
44 1 0.0600731 0.943447 0.0848854
10 1 0.0243545 0.809202 0.100488
38 1 0.355894 0.951473 0.107426
547 2 0.539149 0.772442 0.0935474
509 2 0.441736 0.855395 0.0704587
95 1 0.604585 0.842688 0.0584798
45 1 0.567934 0.983528 0.0760409
524 2 0.7045 0.744605 0.0751167
21 1 0.663894 0.839555 0.106413
541 2 0.886156 0.982922 0.0894765
534 2 0.75249 0.879779 0.0596004
39 1 0.935239 0.875792 0.0606058
550 2 0.810099 0.861722 0.0982795
599 2 0.195887 0.0900037 0.138836
539 2 0.000215408 0.15844 0.138374
120 1 0.100699 0.123626 0.167785
543 2 0.26759 0.188201 0.163046
587 2 0.375255 0.116669 0.13132
671 2 0.414814 0.0899448 0.17164
99 1 0.583655 0.0962316 0.13746
60 1 0.714951 0.177809 0.156054
54 1 0.965701 0.0399711 0.176882
486 1 0.869051 0.112578 0.12226
530 2 0.851473 0.158057 0.167159
589 2 0.190019 0.287214 0.131936
638 2 0.0524434 0.355235 0.13873
82 1 0.219096 0.445093 0.151367
76 1 0.139529 0.278649 0.171619
105 1 0.416738 0.264787 0.149316
595 2 0.306992 0.225084 0.112596
50 1 0.501089 0.378956 0.127515
556 2 0.441591 0.409348 0.168942
590 2 0.723545 0.380858 0.152242
557 2 0.575536 0.264205 0.149245
64 1 0.583926 0.431774 0.154931
42 1 0.812223 0.28361 0.117172
93 1 0.871242 0.421556 0.137126
109 1 0.835898 0.297336 0.154795
1 1 0.0113703 0.391088 0.179121
544 2 0.0691018 0.527697 0.163935
125 1 0.197246 0.604598 0.157512
107 1 0.0561563 0.688652 0.124746
11 1 0.184807 0.743031 0.141529
78 1 0.281764 0.586008 0.116979
519 2 0.424269 0.523813 0.136729
116 1 0.42936 0.684417 0.1364
593 2 0.338731 0.685807 0.169066
998 2 0.58572 0.603175 0.144567
604 2 0.718399 0.691222 0.141653
502 2 0.519518 0.681589 0.170054
77 1 0.928046 0.573494 0.122203
981 2 0.773891 0.519271 0.109351
636 2 0.915676 0.548719 0.166554
80 1 0.749524 0.531016 0.153943
83 1 0.856932 0.722286 0.159833
104 1 0.909026 0.746572 0.121048
963 2 0.0668318 0.984982 0.142375
141 1 0.00364314 0.788961 0.148625
97 1 0.105107 0.875504 0.169948
551 2 0.32903 0.790003 0.123347
72 1 0.265193 0.92264 0.140281
570 2 0.436892 0.812448 0.166719
117 1 0.649478 0.992934 0.15969
598 2 0.56081 0.757142 0.133799
14 1 0.714955 0.848166 0.146573
971 2 0.524517 0.933142 0.132928
540 2 0.582194 0.842799 0.176741
118 1 0.77009 0.986729 0.131691
88 1 0.933101 0.910843 0.122636
517 2 0.896051 0.906114 0.160545
112 1 0.229071 0.126289 0.198102
569 2 0.990121 0.208356 0.180682
603 2 0.16685 0.104411 0.231113
127 1 0.0293504 0.107268 0.206766
101 1 0.423957 0.236559 0.193453
607 2 0.379167 0.106276 0.211627
90 1 0.598786 0.145929 0.182416
626 2 0.543145 0.0810233 0.212507
161 1 0.714144 0.0869691 0.206175
583 2 0.878144 0.120779 0.213507
102 1 0.784678 0.0134712 0.179559
580 2 0.0127983 0.213956 0.237787
957 2 0.133848 0.37357 0.205566
585 2 0.232866 0.475418 0.185505
611 2 0.256421 0.299682 0.205663
608 2 0.211743 0.447531 0.234255
535 2 0.281396 0.339344 0.168945
609 2 0.392342 0.374668 0.205802
653 2 0.480186 0.209154 0.238204
100 1 0.702998 0.423291 0.195656
670 2 0.5636 0.311693 0.184068
592 2 0.636103 0.252247 0.215209
157 1 0.747479 0.265073 0.1891
84 1 0.552117 0.396812 0.218993
26 1 0.877258 0.280577 0.201734
567 2 0.941759 0.412255 0.211834
621 2 0.773407 0.380953 0.226757
564 2 0.834453 0.425127 0.179918
87 1 0.0800521 0.521725 0.202204
144 1 0.101647 0.707814 0.181119
606 2 0.222938 0.660831 0.205305
121 1 0.143023 0.582922 0.236236
647 2 0.514947 0.517102 0.1936
91 1 0.367225 0.536556 0.170576
665 2 0.416391 0.659551 0.200485
651 2 0.341704 0.542197 0.219192
115 1 0.463854 0.726816 0.235139
150 1 0.665293 0.560998 0.189971
619 2 0.572897 0.663331 0.212768
113 1 0.676691 0.70863 0.180902
55 1 0.678243 0.506041 0.23406
169 1 0.974151 0.640791 0.20188
642 2 0.841615 0.551271 0.206267
632 2 0.733588 0.638287 0.219738
74 1 0.191407 0.992519 0.186338
122 1 0.0463968 0.937248 0.195699
616 2 0.115712 0.785503 0.211822
613 2 0.136032 0.964425 0.231962
68 1 0.361877 0.955978 0.18092
591 2 0.27433 0.786759 0.228643
562 2 0.275753 0.977664 0.220557
66 1 0.26936 0.829106 0.174189
149 1 0.381801 0.821983 0.202433
536 2 0.458741 0.938113 0.233028
586 2 0.511716 0.972389 0.183623
531 2 0.712686 0.801788 0.227528
131 1 0.539418 0.848856 0.214029
605 2 0.629103 0.957045 0.23295
553 2 0.959756 0.791726 0.186634
108 1 0.768788 0.841477 0.191243
578 2 0.916062 0.981517 0.209957
628 2 0.951871 0.0438966 0.24373
615 2 0.781963 0.936695 0.221321
596 2 0.851422 0.734663 0.216588
111 1 0.976992 0.862724 0.227426
667 2 0.106441 0.157187 0.272124
140 1 0.266958 0.138889 0.266957
176 1 0.0574284 0.999053 0.280381
572 2 0.328934 0.230885 0.240074
579 2 0.328636 0.979373 0.256353
151 1 0.409409 0.0909848 0.276133
110 1 0.618515 0.144542 0.243684
623 2 0.525406 0.189107 0.275864
183 1 0.544956 0.0290607 0.269288
601 2 0.912169 0.120982 0.276353
630 2 0.759068 0.056946 0.248069
123 1 0.94076 0.278819 0.273709
719 2 0.791541 0.051811 0.289562
699 2 0.741805 0.190348 0.274005
582 2 0.0666966 0.396927 0.252637
610 2 0.175011 0.278489 0.242523
649 2 0.0900938 0.305926 0.287852
166 1 0.235538 0.367419 0.274001
640 2 0.382528 0.251843 0.273112
164 1 0.390546 0.382776 0.245823
129 1 0.670645 0.309012 0.248516
612 2 0.537027 0.413458 0.295437
627 2 0.522782 0.359293 0.259143
691 2 0.680641 0.478141 0.271759
135 1 0.84794 0.220607 0.239154
130 1 0.904965 0.399154 0.247778
160 1 0.788514 0.363985 0.270621
664 2 0.988049 0.473596 0.288079
634 2 0.259959 0.524653 0.263064
145 1 0.115225 0.57048 0.279101
247 1 0.0176065 0.710548 0.23888
142 1 0.205703 0.706959 0.257945
672 2 0.370152 0.64448 0.253284
635 2 0.504359 0.541534 0.232323
148 1 0.426224 0.48608 0.270382
624 2 0.313091 0.628761 0.288271
103 1 0.47006 0.71992 0.283401
637 2 0.714194 0.614094 0.297434
617 2 0.565916 0.604779 0.269404
155 1 0.666408 0.70265 0.255081
622 2 0.806876 0.526532 0.250244
675 2 0.942354 0.669126 0.28867
568 2 0.995343 0.532561 0.243789
152 1 0.874433 0.64786 0.243541
563 2 0.0493383 0.840424 0.26445
128 1 0.194459 0.915877 0.263952
134 1 0.400685 0.838354 0.260201
201 1 0.417525 0.929004 0.290653
658 2 0.275891 0.819383 0.289127
69 1 0.549492 0.825658 0.267272
147 1 0.661335 0.935065 0.275373
655 2 0.650083 0.756679 0.288122
231 1 0.944889 0.833906 0.295807
94 1 0.885778 0.916957 0.265792
648 2 0.799516 0.787121 0.258815
652 2 0.0163473 0.0910995 0.314051
690 2 0.139909 0.0865195 0.344737
185 1 0.151002 0.076298 0.304333
618 2 0.244815 0.239675 0.295551
602 2 0.302103 0.123712 0.312993
686 2 0.440361 0.148845 0.327206
687 2 0.258558 0.246165 0.340653
679 2 0.630363 0.127509 0.298188
238 1 0.512002 0.0229853 0.311071
202 1 0.693102 0.150427 0.33391
172 1 0.833892 0.13862 0.320631
211 1 0.979373 0.183966 0.34848
639 2 0.0252549 0.459504 0.355751
137 1 0.218942 0.504328 0.304967
620 2 0.211649 0.455145 0.340332
106 1 0.157978 0.348856 0.317315
119 1 0.351187 0.415377 0.302159
138 1 0.452986 0.291595 0.310553
126 1 0.508386 0.435307 0.332699
656 2 0.37471 0.372919 0.343996
189 1 0.636144 0.356958 0.325417
67 1 0.552277 0.250583 0.340789
114 1 0.64415 0.275145 0.289655
650 2 0.617672 0.512217 0.314813
179 1 0.974173 0.265617 0.312442
133 1 0.794155 0.302767 0.322082
629 2 0.932165 0.335644 0.347427
194 1 0.775816 0.473975 0.317829
697 2 0.17269 0.647257 0.306239
153 1 0.991147 0.729328 0.319357
207 1 0.276344 0.632878 0.345526
178 1 0.0368977 0.577915 0.318163
195 1 0.471909 0.551916 0.302098
168 1 0.360097 0.521105 0.324189
163 1 0.394097 0.689483 0.320161
154 1 0.701264 0.606447 0.338407
146 1 0.495855 0.576757 0.338754
703 2 0.577048 0.666112 0.317231
641 2 0.85167 0.551259 0.294448
170 1 0.91274 0.487609 0.333309
175 1 0.834345 0.706956 0.329229
614 2 0.143483 0.829761 0.307953
680 2 0.0819717 0.955728 0.326195
197 1 0.23211 0.939841 0.342901
177 1 0.257304 0.972095 0.298801
221 1 0.248359 0.760537 0.324506
696 2 0.393766 0.83068 0.320485
224 1 0.372198 0.0125573 0.334252
124 1 0.537746 0.814723 0.309742
198 1 0.706221 0.776587 0.325506
724 2 0.637497 0.929527 0.317391
631 2 0.551132 0.986112 0.350543
81 1 0.781979 0.883341 0.292384
625 2 0.928801 0.97759 0.303859
673 2 0.734431 0.988841 0.344374
662 2 0.912248 0.975388 0.355472
588 2 0.864455 0.860625 0.328903
181 1 0.241395 0.207972 0.381029
240 1 0.077206 0.186003 0.374583
660 2 0.198272 0.014854 0.381383
321 1 0.1569 0.110402 0.413822
236 1 0.303678 0.110909 0.356794
136 1 0.509365 0.0833595 0.387005
678 2 0.392248 0.225382 0.403581
257 1 0.296486 0.0847355 0.403286
190 1 0.629248 0.129996 0.366985
187 1 0.684278 0.175126 0.398969
698 2 0.79835 0.0178916 0.377298
706 2 0.628706 0.968036 0.389913
716 2 0.684393 0.27263 0.358682
749 2 0.799446 0.162413 0.36863
715 2 0.94121 0.0819197 0.390482
709 2 0.834008 0.167596 0.404605
720 2 0.176519 0.491568 0.378425
180 1 0.109217 0.303004 0.351087
584 2 0.174218 0.301033 0.414459
710 2 0.0655874 0.387733 0.38774
643 2 0.390277 0.218607 0.363357
677 2 0.311111 0.345893 0.380386
188 1 0.489488 0.342338 0.36775
661 2 0.346387 0.503451 0.364186
714 2 0.464043 0.437642 0.40354
657 2 0.625436 0.496278 0.361011
162 1 0.537193 0.239398 0.388924
669 2 0.623246 0.350655 0.387567
237 1 0.780352 0.384406 0.354437
666 2 0.76707 0.43446 0.393502
165 1 0.893615 0.314151 0.39395
644 2 0.890205 0.459501 0.374472
682 2 0.108832 0.609216 0.349591
700 2 0.0198151 0.768243 0.391851
712 2 0.168992 0.672589 0.387242
156 1 0.0391629 0.544949 0.392379
725 2 0.353005 0.634321 0.379623
717 2 0.474638 0.704425 0.360349
645 2 0.638944 0.701338 0.360941
143 1 0.48991 0.547658 0.374994
779 2 0.682658 0.57428 0.394224
158 1 0.946727 0.640735 0.3503
674 2 0.792426 0.628327 0.370269
191 1 0.813418 0.584528 0.409644
159 1 0.110185 0.762328 0.345188
705 2 0.0584592 0.895259 0.366916
681 2 0.193885 0.93654 0.421314
225 1 0.203238 0.82692 0.374038
205 1 0.0513422 0.974423 0.409461
212 1 0.347766 0.791543 0.362565
646 2 0.39487 0.998791 0.380242
741 2 0.466601 0.74397 0.396559
199 1 0.323742 0.752787 0.403398
633 2 0.532132 0.845892 0.375546
209 1 0.67089 0.868243 0.360355
676 2 0.842728 0.775211 0.362509
173 1 0.708865 0.723239 0.393547
251 1 0.919705 0.923555 0.387997
184 1 0.136366 0.222998 0.44625
772 2 0.0838853 0.985994 0.448285
792 2 0.191113 0.0992163 0.465683
791 2 0.318904 0.0286615 0.442336
713 2 0.292705 0.186181 0.429877
233 1 0.430343 0.205382 0.450097
213 1 0.460427 0.999682 0.425418
182 1 0.552439 0.167831 0.426091
738 2 0.580627 0.123269 0.457941
702 2 0.641431 0.994117 0.430697
734 2 0.760683 0.11601 0.439544
689 2 0.909728 0.0411228 0.427214
193 1 0.897939 0.191751 0.446301
659 2 0.0185611 0.171838 0.419563
261 1 0.025419 0.435056 0.462952
239 1 0.0124898 0.332169 0.436473
203 1 0.138023 0.452174 0.419307
688 2 0.31561 0.472852 0.410289
265 1 0.418694 0.401469 0.43817
736 2 0.261426 0.348917 0.441246
216 1 0.541818 0.318425 0.434545
132 1 0.591315 0.496119 0.421437
218 1 0.534473 0.414725 0.472161
300 1 0.672672 0.409367 0.458464
692 2 0.739436 0.298082 0.408219
234 1 0.83317 0.386568 0.442763
217 1 0.914833 0.471743 0.417214
196 1 0.248576 0.615398 0.42236
222 1 0.199573 0.511797 0.453574
737 2 0.0553797 0.649602 0.418241
701 2 0.0595024 0.592404 0.455685
726 2 0.201135 0.709753 0.459313
220 1 0.427726 0.609623 0.411988
167 1 0.423422 0.568421 0.448248
227 1 0.493061 0.688719 0.455044
171 1 0.593466 0.666857 0.42434
255 1 0.610777 0.544813 0.458296
206 1 0.754053 0.666757 0.437549
685 2 0.773089 0.543676 0.458438
723 2 0.92694 0.609709 0.442203
246 1 0.8557 0.73423 0.408117
200 1 0.172361 0.792802 0.41206
746 2 0.238351 0.897333 0.468452
755 2 0.0843907 0.835302 0.456645
223 1 0.482634 0.823792 0.431882
296 1 0.338345 0.77398 0.4425
708 2 0.363598 0.884596 0.417822
174 1 0.400318 0.906927 0.466449
208 1 0.534326 0.981598 0.468689
727 2 0.617806 0.814144 0.448465
733 2 0.597063 0.859067 0.41321
264 1 0.692952 0.982355 0.466412
654 2 0.971868 0.861745 0.421868
693 2 0.92685 0.767767 0.444312
232 1 0.797101 0.913228 0.417714
229 1 0.7613 0.828613 0.453675
684 2 0.876257 0.935617 0.461686
763 2 0.00486583 0.129054 0.465778
272 1 0.119308 0.103452 0.503779
259 1 0.206153 0.254257 0.510343
742 2 0.407633 0.030801 0.516448
269 1 0.271172 0.0306874 0.496965
219 1 0.397066 0.0896124 0.475271
285 1 0.270895 0.232019 0.475307
728 2 0.290136 0.140924 0.524576
366 1 0.413159 0.204098 0.513571
718 2 0.737155 0.28128 0.462763
289 1 0.726766 0.157793 0.500756
260 1 0.564423 0.259064 0.472722
778 2 0.562687 0.175518 0.511146
683 2 0.804668 0.0639089 0.480466
711 2 0.968935 0.0982901 0.502952
704 2 0.873092 0.197525 0.486203
242 1 0.0795912 0.272127 0.476552
745 2 0.240551 0.422179 0.483037
215 1 0.00167545 0.261712 0.523026
732 2 0.164324 0.409485 0.517685
258 1 0.313094 0.395945 0.52164
721 2 0.399168 0.320162 0.475526
695 2 0.388417 0.474905 0.474458
748 2 0.404626 0.523848 0.527233
308 1 0.661969 0.321403 0.499825
249 1 0.480992 0.346334 0.507458
823 2 0.611212 0.456262 0.521584
767 2 0.935777 0.309443 0.469798
275 1 0.902621 0.503743 0.473142
740 2 0.00236562 0.404504 0.504054
759 2 0.855514 0.288031 0.516572
739 2 0.795375 0.389798 0.486852
186 1 0.100854 0.506893 0.488152
785 2 0.0550397 0.638275 0.504593
735 2 0.277686 0.701534 0.500595
762 2 0.32013 0.624462 0.466737
766 2 0.426711 0.632737 0.497689
278 1 0.265054 0.54045 0.503433
753 2 0.689741 0.705628 0.470525
204 1 0.5287 0.536162 0.49166
314 1 0.582498 0.618615 0.521487
754 2 0.690661 0.57191 0.491774
214 1 0.53955 0.737509 0.489124
722 2 0.867978 0.656541 0.475691
230 1 0.920633 0.537843 0.517234
309 1 0.80258 0.623046 0.511577
744 2 0.771281 0.470207 0.521924
284 1 0.0012863 0.930549 0.490974
250 1 0.0182468 0.775059 0.494693
747 2 0.185437 0.879891 0.508177
780 2 0.136737 0.755367 0.524008
707 2 0.37409 0.781718 0.480993
287 1 0.360687 0.895034 0.506139
210 1 0.444639 0.776423 0.51897
235 1 0.580364 0.0185016 0.502805
668 2 0.697207 0.847648 0.48863
824 2 0.734139 0.0113763 0.512752
731 2 0.586405 0.760419 0.538393
279 1 0.544338 0.87959 0.507033
774 2 0.864332 0.817419 0.490999
282 1 0.892658 0.977124 0.513409
663 2 0.911917 0.701091 0.519674
865 2 0.7895 0.85896 0.52735
281 1 0.142504 0.262345 0.590892
764 2 0.16346 0.148639 0.546015
243 1 0.044316 0.049491 0.581996
263 1 0.317206 0.111126 0.564724
357 1 0.304033 0.259318 0.5524
299 1 0.474447 0.165722 0.550685
348 1 0.453859 0.00981051 0.574886
809 2 0.693081 0.112982 0.542693
274 1 0.70677 0.178084 0.578834
798 2 0.546085 0.033583 0.543168
758 2 0.602835 0.999292 0.58144
804 2 0.841984 0.114494 0.529115
757 2 0.988717 0.0465577 0.54393
729 2 0.950049 0.263527 0.558386
277 1 0.868856 0.0929421 0.570687
320 1 0.787268 0.264156 0.555784
781 2 0.132509 0.318632 0.543493
295 1 0.0638289 0.405812 0.577454
228 1 0.448942 0.34005 0.54352
811 2 0.23902 0.519669 0.540513
341 1 0.278924 0.366503 0.578148
254 1 0.62689 0.315532 0.580632
270 1 0.598188 0.263607 0.542936
761 2 0.698882 0.388901 0.547724
694 2 0.552817 0.422865 0.565909
765 2 0.866828 0.413569 0.552759
795 2 0.755224 0.381923 0.586904
776 2 0.923789 0.49539 0.584482
315 1 0.0711814 0.526551 0.528793
298 1 0.000616716 0.618298 0.58654
283 1 0.253973 0.634807 0.588269
775 2 0.133086 0.633297 0.55494
192 1 0.0816555 0.769464 0.580953
267 1 0.320666 0.642376 0.548115
322 1 0.474722 0.63679 0.545896
288 1 0.424918 0.794101 0.563691
350 1 0.434147 0.596874 0.584265
245 1 0.709294 0.662543 0.545039
750 2 0.593221 0.572488 0.568108
790 2 0.747933 0.521096 0.568831
793 2 0.00525696 0.705596 0.550827
262 1 0.85532 0.753296 0.564601
244 1 0.856989 0.589837 0.549442
290 1 0.102108 0.96647 0.536997
256 1 0.189762 0.857375 0.559287
751 2 0.192991 0.0136003 0.568849
822 2 0.987121 0.909388 0.564242
310 1 0.264547 0.97453 0.532891
752 2 0.305357 0.790472 0.532607
266 1 0.424377 0.910258 0.5431
832 2 0.359361 0.912764 0.59021
273 1 0.561105 0.743183 0.57601
372 1 0.581211 0.896773 0.553891
783 2 0.715297 0.826011 0.56337
291 1 0.739456 0.0167165 0.570485
770 2 0.971546 0.854437 0.52854
306 1 0.819151 0.884543 0.587528
789 2 0.860291 0.948441 0.554457
799 2 0.164048 0.105416 0.605921
871 2 0.0864465 0.212027 0.625844
803 2 0.215778 0.996077 0.639701
788 2 0.0283883 0.064506 0.630869
349 1 0.286766 0.202594 0.59925
319 1 0.336249 0.0466759 0.600932
292 1 0.264841 0.149859 0.637752
276 1 0.447292 0.145067 0.627184
782 2 0.46525 0.285988 0.580531
794 2 0.524586 0.144131 0.588058
335 1 0.667857 0.104167 0.628488
268 1 0.785875 0.112998 0.604928
304 1 0.961688 0.142832 0.603943
817 2 0.877126 0.096982 0.63504
294 1 0.991169 0.309967 0.597312
825 2 0.208996 0.335706 0.623958
814 2 0.282447 0.474352 0.618578
829 2 0.072723 0.48351 0.612375
303 1 0.0537918 0.378984 0.643308
241 1 0.443149 0.433052 0.594974
253 1 0.35017 0.311045 0.61935
376 1 0.494249 0.268473 0.647182
769 2 0.62024 0.465451 0.602105
311 1 0.705724 0.245885 0.612245
340 1 0.695017 0.396951 0.633412
328 1 0.517002 0.345576 0.616421
845 2 0.870284 0.259205 0.633058
313 1 0.844427 0.226114 0.588791
271 1 0.878809 0.387457 0.611398
302 1 0.193895 0.497101 0.576922
368 1 0.134216 0.629509 0.614725
860 2 0.340181 0.626492 0.620695
815 2 0.468389 0.551719 0.631321
293 1 0.610682 0.52296 0.636694
226 1 0.547868 0.672966 0.622261
826 2 0.700056 0.69557 0.586855
808 2 0.709691 0.667424 0.633611
813 2 0.743604 0.555686 0.610762
840 2 0.833401 0.589715 0.650656
843 2 0.839136 0.63098 0.588047
797 2 0.897802 0.701298 0.620062
280 1 0.079998 0.920521 0.611386
796 2 0.118192 0.77749 0.62692
864 2 0.984267 0.762197 0.646003
760 2 0.253473 0.788586 0.642692
777 2 0.253807 0.7795 0.601157
743 2 0.417465 0.765767 0.60486
343 1 0.394176 0.939328 0.626407
818 2 0.224985 0.934462 0.606157
374 1 0.551782 0.0219625 0.619525
325 1 0.513479 0.864208 0.589697
297 1 0.647317 0.88355 0.607737
849 2 0.537426 0.808719 0.631753
730 2 0.966447 0.820192 0.605419
286 1 0.917724 0.979609 0.601228
326 1 0.774539 0.960992 0.623493
784 2 0.911306 0.917533 0.645281
301 1 0.790289 0.803734 0.621787
802 2 0.152207 0.263079 0.663256
863 2 0.0840275 0.113096 0.675983
345 1 0.040159 0.239152 0.697375
771 2 0.260583 0.250081 0.698544
346 1 0.228563 0.0905047 0.678072
787 2 0.38934 0.14142 0.674598
900 2 0.359956 0.972553 0.684581
801 2 0.543985 0.243448 0.68701
812 2 0.683042 0.228401 0.695115
333 1 0.550593 0.105203 0.666386
365 1 0.711937 0.0906546 0.676773
443 1 0.619522 0.969109 0.690421
331 1 0.959542 0.177907 0.665398
807 2 0.935309 0.0202748 0.671803
827 2 0.807042 0.203173 0.662446
838 2 0.223724 0.410013 0.657746
821 2 0.227282 0.391516 0.696269
334 1 0.0906929 0.495317 0.672622
891 2 0.315156 0.255197 0.659961
896 2 0.392652 0.314582 0.689443
364 1 0.380958 0.404669 0.652934
768 2 0.474102 0.446171 0.700299
862 2 0.584436 0.379189 0.670951
248 1 0.651031 0.226357 0.653069
773 2 0.738979 0.338083 0.669697
370 1 0.936007 0.341878 0.669292
397 1 0.827608 0.280169 0.699455
850 2 0.996716 0.563826 0.646936
836 2 0.115451 0.666105 0.661388
355 1 0.112728 0.667169 0.699922
424 1 0.216078 0.562736 0.687475
842 2 0.245995 0.564298 0.651114
831 2 0.440102 0.684932 0.647691
362 1 0.361152 0.537206 0.675715
756 2 0.30439 0.685167 0.670686
317 1 0.452715 0.648053 0.692257
324 1 0.632757 0.664167 0.673275
872 2 0.730412 0.492631 0.674784
847 2 0.514548 0.535007 0.666967
360 1 0.606062 0.537031 0.702845
886 2 0.644345 0.711177 0.709026
873 2 0.912603 0.491335 0.680219
379 1 0.97078 0.696212 0.681472
358 1 0.757545 0.642991 0.688309
800 2 0.0917775 0.907689 0.652466
867 2 0.216024 0.877212 0.699143
252 1 0.0478933 0.827337 0.681711
846 2 0.0258364 0.966624 0.707682
819 2 0.398382 0.839854 0.652904
874 2 0.24994 0.903162 0.664225
316 1 0.508243 0.869213 0.697632
327 1 0.480533 0.954953 0.663134
869 2 0.365366 0.827435 0.694697
353 1 0.647374 0.959856 0.64656
342 1 0.717192 0.868052 0.700447
909 2 0.576602 0.792206 0.670488
305 1 0.726672 0.84263 0.655207
332 1 0.846749 0.73343 0.663888
810 2 0.789891 0.966247 0.670645
854 2 0.903909 0.8436 0.689033
930 2 0.112218 0.086393 0.715544
359 1 0.14784 0.141661 0.750145
377 1 0.0248899 0.0473687 0.746299
830 2 0.998345 0.211624 0.730798
416 1 0.325625 0.12957 0.713177
880 2 0.394185 0.113303 0.76212
323 1 0.49514 0.00540637 0.746931
851 2 0.474326 0.125702 0.714281
859 2 0.730208 0.0705137 0.710321
375 1 0.553811 0.152181 0.751376
449 1 0.625301 0.030813 0.770104
361 1 0.949116 0.120574 0.704352
853 2 0.859425 0.122472 0.738294
861 2 0.163032 0.274524 0.722938
386 1 0.0844766 0.378236 0.705832
387 1 0.985074 0.368742 0.747351
338 1 0.28403 0.365706 0.742223
835 2 0.15208 0.446541 0.761544
858 2 0.340211 0.502367 0.717283
901 2 0.431003 0.396286 0.757511
312 1 0.382703 0.254117 0.723396
834 2 0.523354 0.297448 0.726497
390 1 0.748831 0.261148 0.731852
844 2 0.648154 0.378385 0.711706
935 2 0.605411 0.378465 0.754651
816 2 0.872858 0.254605 0.760348
422 1 0.906843 0.403279 0.712572
430 1 0.731347 0.463221 0.73631
848 2 0.168426 0.494469 0.722603
839 2 0.0218169 0.526806 0.709282
855 2 0.0161878 0.52663 0.75249
384 1 0.210254 0.610969 0.745352
942 2 0.126479 0.747484 0.756003
892 2 0.0131803 0.676401 0.726224
820 2 0.335712 0.645829 0.71804
877 2 0.336996 0.692313 0.758586
367 1 0.532999 0.479997 0.734808
898 2 0.750725 0.620859 0.733883
396 1 0.536147 0.643883 0.730913
389 1 0.798552 0.764296 0.717675
875 2 0.860313 0.552502 0.748463
423 1 0.879289 0.597562 0.708519
870 2 0.926667 0.719561 0.760016
473 1 0.210266 0.745414 0.725852
852 2 0.238322 0.0166074 0.723194
398 1 0.092395 0.841123 0.725252
352 1 0.135247 0.954017 0.748619
420 1 0.276865 0.873218 0.741711
347 1 0.41509 0.774472 0.728128
318 1 0.389462 0.962728 0.721477
837 2 0.742023 0.951464 0.735438
339 1 0.603525 0.902302 0.73624
897 2 0.670431 0.76612 0.744723
337 1 0.850341 0.979321 0.706977
330 1 0.94199 0.818031 0.725366
411 1 0.0237986 0.874078 0.766767
882 2 0.904623 0.960989 0.745213
382 1 0.810618 0.835251 0.75109
921 2 0.108163 0.0415175 0.782368
895 2 0.0228648 0.208829 0.780645
954 2 0.206909 0.0875633 0.82068
497 1 0.971766 0.123726 0.809752
828 2 0.510266 0.266104 0.779529
407 1 0.258969 0.138625 0.786416
373 1 0.475128 0.019692 0.786323
363 1 0.263989 0.0170535 0.76235
786 2 0.403909 0.137778 0.816379
884 2 0.68014 0.0611564 0.82317
481 1 0.608963 0.149693 0.794645
356 1 0.887372 0.0947654 0.777431
460 1 0.739042 0.107833 0.774952
806 2 0.797752 0.198737 0.813535
990 2 0.15737 0.275669 0.762862
441 1 0.057798 0.380919 0.787758
984 2 0.190347 0.315629 0.802556
429 1 0.404734 0.287048 0.804475
408 1 0.339314 0.254152 0.760896
378 1 0.308343 0.412378 0.798753
889 2 0.650161 0.330729 0.799272
380 1 0.665497 0.244063 0.767543
329 1 0.661021 0.490521 0.787723
405 1 0.524692 0.418969 0.792021
434 1 0.543452 0.237165 0.818507
410 1 0.788863 0.350413 0.783574
413 1 0.81007 0.443314 0.809658
893 2 0.909191 0.475592 0.779212
964 2 0.913581 0.322474 0.805306
805 2 0.150127 0.520301 0.791145
879 2 0.221588 0.673566 0.78865
972 2 0.0167714 0.634864 0.782123
905 2 0.0548516 0.574791 0.818963
881 2 0.287864 0.527893 0.771856
841 2 0.328916 0.603048 0.813199
910 2 0.439833 0.535313 0.771341
915 2 0.42079 0.701634 0.792901
391 1 0.562732 0.591801 0.764443
381 1 0.679745 0.617732 0.809078
400 1 0.587451 0.738108 0.785184
393 1 0.889145 0.580523 0.812064
404 1 0.743824 0.778885 0.784373
414 1 0.740764 0.634343 0.772363
351 1 0.9049 0.726375 0.802164
425 1 0.101307 0.96509 0.821102
344 1 0.0790847 0.783301 0.80002
406 1 0.175441 0.878927 0.778061
412 1 0.298764 0.970764 0.798286
924 2 0.388821 0.927931 0.766199
941 2 0.323138 0.820943 0.791702
383 1 0.498025 0.857234 0.796743
307 1 0.647891 0.871501 0.778643
385 1 0.783801 0.961622 0.772516
833 2 0.506209 0.816676 0.761039
354 1 0.735477 0.936536 0.809518
899 2 0.975031 0.98116 0.7924
392 1 0.887762 0.868305 0.788406
457 1 0.112547 0.215375 0.829606
956 2 0.173459 0.132067 0.857582
483 1 0.00818132 0.0377645 0.841495
968 2 0.0427097 0.261116 0.870916
428 1 0.117752 0.055113 0.890043
462 1 0.439268 0.991571 0.820971
928 2 0.289827 0.219491 0.831619
452 1 0.307881 0.163979 0.873803
336 1 0.533256 0.132895 0.842663
866 2 0.240333 0.979754 0.869985
937 2 0.438893 0.0414153 0.872258
868 2 0.683286 0.199811 0.84624
887 2 0.647828 0.0630567 0.866003
450 1 0.651676 0.248073 0.883398
938 2 0.814934 0.0788789 0.850973
976 2 0.918203 0.242139 0.837201
953 2 0.813726 0.247679 0.875736
30 1 0.950444 0.128847 0.871586
916 2 0.0855894 0.402925 0.838886
934 2 0.192305 0.296146 0.861549
476 1 0.144242 0.430584 0.876486
388 1 0.22861 0.501303 0.824223
857 2 0.466342 0.436216 0.830024
418 1 0.295049 0.429257 0.878552
501 2 0.335857 0.378873 0.838884
32 1 0.46654 0.441824 0.879272
949 2 0.474451 0.309433 0.85719
417 1 0.622902 0.38861 0.831063
960 2 0.678694 0.417465 0.862529
876 2 0.785147 0.330946 0.843582
435 1 0.940206 0.4481 0.830038
996 2 0.959168 0.395115 0.867815
912 2 0.189179 0.676164 0.825827
426 1 0.199884 0.561292 0.856331
431 1 0.0585916 0.546379 0.873538
470 1 0.994131 0.688197 0.882313
944 2 0.0262749 0.70054 0.837107
883 2 0.485074 0.593421 0.816315
932 2 0.376719 0.554191 0.853544
878 2 0.277521 0.683406 0.861224
913 2 0.52548 0.631202 0.874196
894 2 0.340807 0.749738 0.828338
933 2 0.776713 0.52719 0.838781
919 2 0.599116 0.530699 0.835801
395 1 0.674653 0.639219 0.855509
856 2 0.799787 0.700946 0.830273
955 2 0.764673 0.518641 0.87716
966 2 0.901845 0.626011 0.854465
415 1 0.824679 0.710098 0.879023
22 1 0.205658 0.864854 0.825774
890 2 0.12639 0.762861 0.864935
453 1 0.0813245 0.931797 0.85882
911 2 0.986702 0.878304 0.830002
940 2 0.445455 0.764861 0.865856
401 1 0.34735 0.905631 0.845714
439 1 0.267677 0.838666 0.869973
925 2 0.578812 0.926071 0.834406
920 2 0.690063 0.802489 0.825187
369 1 0.735025 0.942165 0.849071
445 1 0.574592 0.942196 0.874227
917 2 0.522874 0.765108 0.83316
469 1 0.616983 0.790777 0.865185
421 1 0.86895 0.986759 0.827495
922 2 0.916667 0.96908 0.872657
461 1 0.970035 0.824598 0.867133
394 1 0.854882 0.831815 0.84213
451 1 0.125064 0.261606 0.91579
970 2 0.233023 0.138967 0.910205
463 1 0.455382 0.18903 0.888639
474 1 0.444842 0.215613 0.924248
923 2 0.382589 0.075866 0.918026
399 1 0.557456 0.0588111 0.902379
904 2 0.757365 0.110166 0.889695
950 2 0.626412 0.223373 0.922473
515 2 0.536458 0.117114 0.945755
5 1 0.679732 0.0544651 0.926937
427 1 0.831302 0.145563 0.925447
442 1 0.988076 0.0956705 0.907715
419 1 0.0291482 0.387298 0.902114
988 2 0.241734 0.398962 0.920606
403 1 0.268616 0.28405 0.892522
446 1 0.411355 0.35403 0.911947
505 2 0.420154 0.403612 0.945756
493 1 0.558618 0.337528 0.904579
466 1 0.550605 0.458488 0.926995