ITEM: TIMESTEP
7780
ITEM: NUMBER OF ATOMS
1000
ITEM: BOX BOUNDS pp pp pp
0.0000000000000000e+00 6.2996052494743662e+00
0.0000000000000000e+00 6.2996052494743662e+00
0.0000000000000000e+00 2.5198420997897465e+01
ITEM: ATOMS id type xs ys zs
11 1 0.01584 0.148084 0.0322036
80 1 0.0761773 0.120175 0.0777836
486 1 0.00513235 0.26505 0.00206857
528 2 0.0274884 0.293085 0.0390501
985 2 0.171875 0.208057 0.0608171
489 1 0.392382 0.215623 0.0441932
482 1 0.297333 0.103592 0.00823545
980 2 0.471734 0.19287 0.00752048
12 1 0.586907 0.00514464 0.0622852
927 2 0.329601 0.344952 0.998531
522 2 0.523365 0.111579 0.97137
512 2 0.622889 0.0976785 0.0203939
529 2 0.800862 0.227817 0.0273149
504 2 0.74871 0.0749356 0.00372872
534 2 0.722281 0.957831 0.0356717
477 1 0.867903 0.089742 0.0277061
51 1 0.0393735 0.425441 0.974622
61 1 0.080898 0.401004 0.0133668
510 2 0.161862 0.311782 0.979838
963 2 0.209958 0.267278 0.0121998
517 2 0.235502 0.461169 0.0229124
957 2 0.331231 0.355683 0.0409149
49 1 0.290608 0.492492 0.980557
63 1 0.407657 0.346892 0.0759694
999 2 0.476818 0.36147 0.0417655
558 2 0.642057 0.422112 0.0525104
574 2 0.765128 0.339869 0.997322
977 2 0.910608 0.384783 0.0194363
508 2 0.858385 0.460689 0.985182
506 2 0.765064 0.401934 0.0345906
545 2 0.0656111 0.540573 0.0265011
520 2 0.924963 0.679113 0.0262546
488 1 0.141193 0.537076 0.993587
33 1 0.442314 0.502418 0.00529639
43 1 0.346893 0.617503 0.0175426
18 1 0.364057 0.504329 0.0512788
3 1 0.380773 0.771168 0.0030747
962 2 0.202391 0.592247 0.0360601
514 2 0.40236 0.601573 0.978761
516 2 0.547354 0.648881 0.042048
24 1 0.612005 0.569122 0.00913479
524 2 0.518926 0.502851 0.0433235
17 1 0.647468 0.742987 0.021741
549 2 0.723274 0.673589 0.0636065
485 1 0.716505 0.55281 0.0429523
15 1 0.937835 0.587351 0.055478
961 2 0.883047 0.53198 0.0196366
6 1 0.769903 0.6508 0.0150253
1 1 0.984682 0.0154735 0.0593508
982 2 0.015426 0.993807 0.0231645
967 2 0.105081 0.894105 0.0443031
13 1 0.323662 0.0515409 0.0408339
951 2 0.215435 0.85917 0.00634219
997 2 0.330614 0.753885 0.0413376
9 1 0.505107 0.814009 0.0267632
8 1 0.492174 0.0109957 0.00494881
498 1 0.640572 0.819213 0.0606115
507 2 0.922826 0.871204 0.0332694
5 1 0.857176 0.972056 0.000616914
575 2 0.844282 0.926044 0.06173
95 1 0.804472 0.762117 0.0426692
35 1 0.016902 0.304008 0.0809266
555 2 0.140932 0.0578426 0.12414
44 1 0.0739199 0.951355 0.0838305
52 1 0.250002 0.126798 0.0958047
551 2 0.509305 0.111243 0.120249
573 2 0.741674 0.107435 0.053318
56 1 0.445247 0.208028 0.0852122
526 2 0.543507 0.17337 0.0517121
28 1 0.373366 0.060415 0.0806633
27 1 0.704001 0.975755 0.0886492
503 2 0.668412 0.252633 0.102867
34 1 0.821361 0.134947 0.100241
71 1 0.941141 0.174654 0.0785507
981 2 0.00440426 0.460012 0.056385
40 1 0.0131831 0.506479 0.0960428
532 2 0.162232 0.376394 0.0527248
89 1 0.989488 0.361682 0.120314
86 1 0.143891 0.525415 0.078546
85 1 0.132977 0.398977 0.0987899
7 1 0.275141 0.284645 0.0827672
65 1 0.285743 0.462329 0.08373
556 2 0.423109 0.440379 0.104425
73 1 0.749469 0.247792 0.0707053
538 2 0.577324 0.487803 0.0869746
527 2 0.496344 0.275249 0.11873
50 1 0.733376 0.470179 0.089284
487 1 0.886235 0.291798 0.0521128
511 2 0.86545 0.442417 0.0625529
533 2 0.821228 0.337953 0.102257
78 1 0.560955 0.329987 0.0807831
70 1 0.0579273 0.671553 0.0578041
21 1 0.17104 0.752746 0.0338744
39 1 0.196566 0.685567 0.0893496
525 2 0.307151 0.612312 0.0689073
42 1 0.345514 0.569304 0.106089
550 2 0.466147 0.628051 0.07509
23 1 0.465714 0.779479 0.0660421
523 2 0.602185 0.636074 0.0864778
998 2 0.656047 0.540014 0.125184
509 2 0.862878 0.521316 0.0993877
559 2 0.751109 0.630799 0.10289
10 1 0.953129 0.664938 0.0942101
530 2 0.929382 0.853977 0.0975692
540 2 0.104283 0.762566 0.11795
502 2 0.0646668 0.805312 0.0813466
101 1 0.194796 0.0230626 0.0719919
36 1 0.440112 0.95593 0.040142
37 1 0.278858 0.9099 0.045305
546 2 0.235174 0.806909 0.0677837
57 1 0.308184 0.930566 0.0882446
98 1 0.291911 0.00575986 0.139004
548 2 0.657682 0.817689 0.101764
48 1 0.472038 0.941422 0.0883185
74 1 0.589955 0.978307 0.124051
100 1 0.921616 0.759062 0.0622011
565 2 0.882549 0.994426 0.104064
96 1 0.787163 0.840733 0.0898422
59 1 0.980855 0.161139 0.120374
26 1 0.10874 0.218783 0.141487
81 1 0.0595643 0.0723105 0.203134
580 2 0.0343455 0.349761 0.167899
82 1 0.310229 0.157833 0.13268
93 1 0.384599 0.0623254 0.161987
128 1 0.230539 0.187143 0.175978
53 1 0.528587 0.029165 0.156723
552 2 0.590501 0.142505 0.0877013
125 1 0.573551 0.21843 0.151342
576 2 0.0096199 0.0081615 0.149196
554 2 0.865965 0.0557611 0.138082
41 1 0.0959186 0.448128 0.138495
598 2 0.15229 0.242286 0.105233
581 2 0.18979 0.342651 0.153573
99 1 0.872617 0.331906 0.142883
77 1 0.33326 0.301389 0.121191
87 1 0.419153 0.24731 0.153398
561 2 0.372275 0.416048 0.146128
590 2 0.248705 0.42762 0.127099
547 2 0.494052 0.535145 0.127466
583 2 0.468198 0.168542 0.185418
62 1 0.630224 0.368658 0.157408
531 2 0.612363 0.386777 0.117059
14 1 0.92971 0.517821 0.13803
92 1 0.740221 0.217122 0.139487
519 2 0.763779 0.450215 0.142186
553 2 0.0640403 0.602483 0.16444
64 1 0.117197 0.572151 0.114524
595 2 0.210456 0.654798 0.168586
542 2 0.301659 0.782577 0.103464
564 2 0.235374 0.671874 0.129782
38 1 0.448881 0.674656 0.123645
91 1 0.307997 0.556011 0.146416
562 2 0.65994 0.632452 0.160424
537 2 0.600854 0.696223 0.121789
543 2 0.713028 0.795019 0.144012
116 1 0.550814 0.521158 0.162075
139 1 0.645449 0.78801 0.179802
513 2 0.840802 0.74886 0.123385
66 1 0.0101529 0.671825 0.133465
88 1 0.792755 0.603123 0.140259
541 2 0.132356 0.915958 0.150009
560 2 0.161613 0.903986 0.110151
566 2 0.210634 0.0224222 0.170498
587 2 0.06491 0.762485 0.161342
97 1 0.237125 0.825003 0.140056
571 2 0.494978 0.79167 0.0994867
567 2 0.314632 0.917593 0.17116
596 2 0.411421 0.825193 0.14797
83 1 0.422658 0.973692 0.125854
577 2 0.718982 0.066812 0.158359
572 2 0.647508 0.932732 0.159534
69 1 0.966073 0.848947 0.140862
600 2 0.682882 0.103226 0.118206
539 2 0.744218 0.937193 0.128624
76 1 0.886995 0.300155 0.201212
602 2 0.236174 0.249735 0.25077
601 2 0.0924104 0.191956 0.178281
102 1 0.202332 0.111427 0.207019
603 2 0.375187 0.0660147 0.205663
157 1 0.491734 0.1183 0.223287
578 2 0.478351 0.900539 0.177515
134 1 0.643811 0.107902 0.220194
599 2 0.658402 0.261682 0.183999
60 1 0.926528 0.229283 0.162581
68 1 0.788471 0.178411 0.178173
605 2 0.936559 0.0838325 0.174795
579 2 0.753033 0.233108 0.218003
535 2 0.187558 0.483678 0.174238
585 2 0.083147 0.383299 0.202639
107 1 0.202625 0.302171 0.203935
582 2 0.202264 0.477871 0.215538
150 1 0.0426621 0.228877 0.218256
610 2 0.322048 0.378498 0.185704
611 2 0.441197 0.311647 0.206784
607 2 0.377303 0.438032 0.216664
632 2 0.411979 0.518779 0.172273
142 1 0.537644 0.419233 0.244948
79 1 0.784934 0.338025 0.176259
112 1 0.475583 0.369071 0.169756
557 2 0.71461 0.492521 0.179483
586 2 0.572728 0.38535 0.202236
638 2 0.630768 0.265343 0.236622
54 1 0.911603 0.439076 0.172418
604 2 0.715645 0.379611 0.214715
84 1 0.998178 0.529091 0.193466
609 2 0.792004 0.534064 0.214662
120 1 0.0910873 0.751044 0.201356
122 1 0.321101 0.745151 0.169003
111 1 0.143464 0.595689 0.197567
591 2 0.250485 0.699492 0.213868
146 1 0.101768 0.608023 0.231641
570 2 0.459977 0.701366 0.171724
141 1 0.290496 0.563637 0.196083
72 1 0.437014 0.661298 0.215687
608 2 0.490904 0.528323 0.214588
589 2 0.753887 0.684707 0.201686
592 2 0.683711 0.750357 0.237409
67 1 0.580549 0.689675 0.203891
90 1 0.8108 0.755259 0.169694
94 1 0.83579 0.574949 0.177661
639 2 0.847497 0.662926 0.243072
615 2 0.926119 0.659159 0.203354
588 2 0.04458 0.92912 0.224268
117 1 0.221796 0.93538 0.204243
105 1 0.0764319 0.929038 0.183586
108 1 0.200398 0.81626 0.179547
622 2 0.362501 0.810529 0.201866
127 1 0.451776 0.950969 0.22169
597 2 0.561499 0.833742 0.131943
568 2 0.613144 0.862983 0.212048
536 2 0.606078 0.116546 0.182689
144 1 0.755392 0.022169 0.196876
113 1 0.772964 0.854297 0.205059
55 1 0.835753 0.927501 0.166902
563 2 0.952227 0.817063 0.184083
594 2 0.952388 0.784689 0.224195
569 2 0.89957 0.96218 0.206623
650 2 0.164518 0.269073 0.28901
151 1 0.0678946 0.151816 0.255494
667 2 0.160805 0.0139692 0.237736
626 2 0.318774 0.214307 0.21893
153 1 0.304677 0.0188676 0.242209
177 1 0.392255 0.11591 0.266798
647 2 0.576088 0.128142 0.25591
131 1 0.686702 0.164283 0.283642
160 1 0.661735 0.993344 0.287052
110 1 0.89108 0.134546 0.210276
124 1 0.766842 0.152742 0.25049
623 2 0.890847 0.274802 0.242407
175 1 0.832055 0.147586 0.283191
621 2 0.926694 0.0572592 0.257379
106 1 0.110035 0.418216 0.284629
140 1 0.0784522 0.404324 0.243099
136 1 0.189336 0.380181 0.321871
606 2 0.33379 0.365391 0.258305
637 2 0.422692 0.45272 0.283744
137 1 0.447647 0.257709 0.248029
634 2 0.688448 0.464237 0.260262
119 1 0.701109 0.400943 0.29151
109 1 0.750703 0.336022 0.25057
135 1 0.827921 0.498204 0.253405
619 2 0.570782 0.559463 0.280057
138 1 0.606372 0.327792 0.268044
172 1 0.979668 0.207671 0.296877
671 2 0.921985 0.428128 0.214462
640 2 0.803001 0.285523 0.283468
145 1 0.986817 0.330977 0.276143
616 2 0.227554 0.675233 0.25232
636 2 0.186483 0.531877 0.256144
166 1 0.0461515 0.580525 0.270042
121 1 0.00823702 0.718635 0.262921
613 2 0.353242 0.744478 0.253259
617 2 0.366766 0.588676 0.241507
612 2 0.274238 0.425295 0.293066
148 1 0.37681 0.596751 0.280129
114 1 0.533793 0.644364 0.249587
635 2 0.635117 0.554565 0.217195
665 2 0.700189 0.61907 0.255544
624 2 0.490602 0.713979 0.294529
104 1 0.948179 0.547022 0.230867
123 1 0.742262 0.823078 0.273661
115 1 0.807338 0.591876 0.288906
130 1 0.81613 0.664473 0.323012
152 1 0.0559699 0.978628 0.261154
672 2 0.121435 0.781525 0.23756
593 2 0.492694 0.801012 0.236167
642 2 0.271511 0.836346 0.270213
147 1 0.319152 0.986436 0.309316
163 1 0.283542 0.866529 0.232632
118 1 0.427963 0.834213 0.273347
676 2 0.550326 0.726787 0.331151
103 1 0.462636 0.975201 0.258981
670 2 0.597114 0.887648 0.258917
614 2 0.774633 0.949365 0.245268
155 1 0.830135 0.993858 0.286736
625 2 0.904687 0.892245 0.257
651 2 0.19612 0.0813554 0.323212
197 1 0.282799 0.148253 0.291089
627 2 0.542135 0.116684 0.29953
662 2 0.293273 0.22958 0.331442
190 1 0.474666 0.134796 0.353701
183 1 0.410041 0.145589 0.318681
653 2 0.611171 0.258697 0.306043
655 2 0.606989 0.137755 0.334493
126 1 0.764658 0.212281 0.323243
628 2 0.574065 0.00273398 0.360311
180 1 0.751578 0.059619 0.317626
182 1 0.0147388 0.120002 0.336573
675 2 0.0816642 0.0917932 0.297052
680 2 0.852849 0.115878 0.349317
646 2 0.930246 0.0736924 0.308891
187 1 0.117857 0.225889 0.321923
661 2 0.114 0.54473 0.305753
133 1 0.482282 0.273628 0.33255
158 1 0.359253 0.2894 0.303632
132 1 0.175598 0.336538 0.360367
143 1 0.36505 0.477927 0.319573
633 2 0.477481 0.326653 0.367799
643 2 0.527477 0.428233 0.322298
159 1 0.642138 0.262769 0.352396
664 2 0.644362 0.442495 0.347623
652 2 0.911432 0.305804 0.319551
185 1 0.809002 0.264441 0.355232
156 1 0.0394739 0.366365 0.318212
161 1 0.790617 0.43211 0.32784
666 2 0.94923 0.502146 0.328218
641 2 0.164163 0.685232 0.287475
167 1 0.262449 0.574565 0.307186
168 1 0.395573 0.695336 0.33192
169 1 0.69099 0.547427 0.313158
644 2 0.673955 0.64336 0.343612
170 1 0.498999 0.566189 0.317097
584 2 0.931558 0.467981 0.293124
618 2 0.947906 0.623955 0.305979
620 2 0.887917 0.787426 0.290569
191 1 0.905974 0.789178 0.331815
649 2 0.972583 0.919809 0.292662
696 2 0.330588 0.717045 0.294585
648 2 0.0970241 0.830638 0.280571
171 1 0.0691078 0.750574 0.314477
201 1 0.19726 0.989278 0.278625
176 1 0.0695169 0.951018 0.319336
231 1 0.204027 0.855106 0.30338
198 1 0.485438 0.796564 0.366703
697 2 0.396944 0.849205 0.31158
673 2 0.487517 0.971135 0.298678
154 1 0.418566 0.963128 0.343902
630 2 0.608128 0.860886 0.299506
164 1 0.67911 0.957853 0.339611
129 1 0.668352 0.721279 0.300599
149 1 0.52097 0.868579 0.329831
674 2 0.788795 0.758251 0.355799
629 2 0.742062 0.841654 0.318078
657 2 0.161233 0.174846 0.35463
212 1 0.0478413 0.0466151 0.404669
682 2 0.199742 0.122305 0.397139
687 2 0.00878774 0.297192 0.36335
188 1 0.439087 0.158997 0.393278
678 2 0.334654 0.194719 0.367558
706 2 0.308959 0.0728041 0.348777
658 2 0.330875 0.0281698 0.390201
707 2 0.322113 0.187541 0.422102
165 1 0.605665 0.171162 0.384716
179 1 0.668393 0.119906 0.424109
679 2 0.716662 0.118567 0.366182
677 2 0.0017754 0.135324 0.378784
660 2 0.859669 0.0197245 0.39886
654 2 0.768692 0.961355 0.369599
631 2 0.19222 0.521524 0.34415
192 1 0.0623066 0.495197 0.362093
686 2 0.316375 0.446088 0.382387
688 2 0.157034 0.455481 0.39299
217 1 0.352378 0.350924 0.347387
683 2 0.430323 0.311834 0.402999
717 2 0.46048 0.45549 0.404114
184 1 0.716247 0.298881 0.400925
189 1 0.601676 0.390478 0.386196
699 2 0.900801 0.40354 0.360728
710 2 0.0134524 0.416272 0.404236
656 2 0.876443 0.314911 0.396867
669 2 0.768074 0.40934 0.375791
691 2 0.242528 0.720032 0.32945
220 1 0.190733 0.652815 0.366548
203 1 0.229306 0.576856 0.40884
692 2 0.469652 0.502166 0.360243
721 2 0.36995 0.579787 0.394981
162 1 0.325402 0.575242 0.35902
173 1 0.511369 0.649124 0.363069
223 1 0.336434 0.731177 0.368192
195 1 0.642454 0.759833 0.370466
663 2 0.620158 0.540338 0.37726
244 1 0.77886 0.532327 0.354965
645 2 0.0613528 0.6078 0.338079
216 1 0.00926902 0.736597 0.35914
186 1 0.886956 0.529785 0.385341
199 1 0.908264 0.628544 0.350772
200 1 0.878358 0.696586 0.39086
207 1 0.130421 0.0121427 0.356644
247 1 0.0932959 0.846562 0.348142
720 2 0.191707 0.803013 0.38791
178 1 0.288697 0.869913 0.348831
698 2 0.477769 0.976719 0.391589
202 1 0.332763 0.873724 0.390153
193 1 0.472305 0.705813 0.398535
174 1 0.575019 0.837726 0.39981
703 2 0.648029 0.0183948 0.393177
194 1 0.7315 0.657478 0.379486
700 2 0.98141 0.988406 0.373702
196 1 0.906443 0.947492 0.335913
221 1 0.0200589 0.8572 0.390554
724 2 0.75675 0.847244 0.39578
225 1 0.891397 0.84422 0.368829
236 1 0.151458 0.151376 0.432066
235 1 0.974305 0.0777843 0.441522
257 1 0.11224 0.0123018 0.447911
735 2 0.216055 0.101178 0.499589
208 1 0.431629 0.0652374 0.421628
233 1 0.239284 0.0767747 0.457799
214 1 0.401636 0.137217 0.463089
204 1 0.556865 0.935415 0.433642
729 2 0.537441 0.0641867 0.45065
684 2 0.529635 0.181025 0.425358
659 2 0.702296 0.153133 0.461695
681 2 0.983395 0.918279 0.432293
209 1 0.829078 0.0543929 0.451919
705 2 0.661696 0.993348 0.462035
711 2 0.129693 0.439106 0.433224
181 1 0.0406501 0.252439 0.445725
237 1 0.0135766 0.558074 0.403066
736 2 0.0928245 0.275434 0.397149
272 1 0.126358 0.333707 0.475528
232 1 0.212894 0.292618 0.44192
213 1 0.264063 0.290416 0.391797
238 1 0.431639 0.269136 0.443878
242 1 0.322795 0.418295 0.468442
239 1 0.34783 0.407863 0.427897
689 2 0.555024 0.327688 0.425737
259 1 0.56926 0.226443 0.466904
211 1 0.971639 0.189635 0.413319
690 2 0.830784 0.186608 0.425811
709 2 0.890469 0.316561 0.436365
215 1 0.00508864 0.419583 0.458478
210 1 0.913918 0.204389 0.459482
734 2 0.711571 0.332168 0.466175
222 1 0.087719 0.68397 0.393477
695 2 0.101892 0.646238 0.430588
246 1 0.0120012 0.741418 0.463441
218 1 0.361052 0.658605 0.447659
713 2 0.301862 0.624939 0.483761
266 1 0.21888 0.748759 0.446276
716 2 0.258996 0.520371 0.445094
243 1 0.474059 0.832132 0.460626
718 2 0.666266 0.445934 0.414255
723 2 0.602028 0.627738 0.407546
694 2 0.493654 0.531694 0.438032
240 1 0.736889 0.466052 0.450556
693 2 0.88448 0.462654 0.431563
296 1 0.942828 0.631491 0.432512
275 1 0.773549 0.56431 0.412478
725 2 0.157145 0.957504 0.393034
746 2 0.113855 0.827892 0.418539
708 2 0.415113 0.846742 0.423405
722 2 0.323468 0.724489 0.41016
702 2 0.25844 0.942175 0.426338
748 2 0.605361 0.763324 0.476525
229 1 0.649211 0.810148 0.439871
749 2 0.726649 0.96208 0.425287
719 2 0.775421 0.723982 0.417199
668 2 0.539902 0.657632 0.451545
224 1 0.774803 0.84796 0.465107
205 1 0.842232 0.869638 0.424946
206 1 0.0840935 0.874346 0.462741
745 2 0.958132 0.769721 0.420698
300 1 0.838374 0.723392 0.463052
726 2 0.0760398 0.149134 0.472804
731 2 0.124181 0.998871 0.527528
760 2 0.165156 0.174372 0.527752
727 2 0.376479 0.971094 0.444492
733 2 0.43011 0.0771663 0.499927
751 2 0.232376 0.944174 0.502303
704 2 0.696787 0.861463 0.502213
753 2 0.504894 0.199315 0.513242
264 1 0.597907 0.101994 0.489221
255 1 0.567457 0.00428513 0.515661
230 1 0.809163 0.258928 0.491366
250 1 0.827485 0.973653 0.489422
755 2 0.946429 0.904665 0.470845
799 2 0.913223 0.998547 0.520732
715 2 0.916439 0.0986338 0.485407
759 2 0.862988 0.183446 0.524221
261 1 0.279528 0.222103 0.480415
265 1 0.994548 0.255957 0.495505
740 2 0.990224 0.425364 0.492761
762 2 0.139493 0.401636 0.515857
732 2 0.343854 0.199526 0.515734
234 1 0.439586 0.256907 0.483738
728 2 0.426211 0.376031 0.521099
739 2 0.580903 0.424913 0.459059
778 2 0.659723 0.252152 0.499073
269 1 0.50535 0.535075 0.519812
685 2 0.81669 0.420107 0.488737
245 1 0.818071 0.558565 0.47271
761 2 0.896938 0.488793 0.521344
270 1 0.571341 0.388879 0.501742
241 1 0.961563 0.564361 0.46958
742 2 0.220502 0.5444 0.533572
767 2 0.0270907 0.561726 0.50629
262 1 0.124178 0.587294 0.472257
712 2 0.197245 0.474914 0.482683
714 2 0.461394 0.483153 0.48032
747 2 0.331115 0.49519 0.509332
743 2 0.463449 0.689269 0.544746
273 1 0.19627 0.670038 0.508929
737 2 0.714976 0.645408 0.446078
738 2 0.583143 0.553436 0.48285
779 2 0.607026 0.689223 0.505572
744 2 0.721171 0.569085 0.505996
770 2 0.938392 0.719471 0.497498
299 1 0.821802 0.716922 0.532097
267 1 0.151485 0.760922 0.479761
227 1 0.241619 0.916691 0.460761
251 1 0.0623565 0.013413 0.486356
278 1 0.188432 0.813462 0.524289
741 2 0.33252 0.78702 0.477461
248 1 0.352924 0.76991 0.514391
752 2 0.384458 0.948165 0.482784
249 1 0.457629 0.674674 0.490159
228 1 0.536845 0.946863 0.478505
254 1 0.751862 0.713088 0.492082
772 2 0.509161 0.839129 0.505813
774 2 0.856847 0.830107 0.513545
701 2 0.0217815 0.845775 0.500512
750 2 0.0327231 0.863364 0.544941
252 1 0.219234 0.0783752 0.586506
321 1 0.97949 0.156016 0.586042
291 1 0.170141 0.232525 0.572451
256 1 0.0326544 0.135054 0.516397
309 1 0.420883 0.930713 0.53109
757 2 0.287621 0.146742 0.551055
758 2 0.464104 0.118095 0.579482
282 1 0.424056 0.965575 0.572305
756 2 0.341699 0.224089 0.58805
310 1 0.445345 0.0818224 0.538425
754 2 0.832651 0.885725 0.583556
314 1 0.735103 0.937871 0.533989
730 2 0.873881 0.88422 0.547801
780 2 0.824377 0.0577111 0.55065
290 1 0.760309 0.229902 0.560747
292 1 0.320716 0.55043 0.57393
765 2 0.0682665 0.308904 0.538687
763 2 0.272418 0.338652 0.503972
263 1 0.515526 0.385184 0.553925
788 2 0.237639 0.323521 0.54291
268 1 0.499743 0.271 0.592986
284 1 0.71714 0.113956 0.523039
764 2 0.44981 0.238954 0.547208
294 1 0.590837 0.291074 0.534525
260 1 0.930692 0.334493 0.522014
789 2 0.763993 0.432191 0.570531
790 2 0.743432 0.364354 0.522742
791 2 0.93095 0.435309 0.555876
776 2 0.946715 0.222381 0.553689
298 1 0.127887 0.482825 0.586817
287 1 0.0907811 0.48681 0.551729
793 2 0.187092 0.803541 0.562632
293 1 0.158311 0.628262 0.562266
817 2 0.288173 0.488456 0.615609
792 2 0.366162 0.42258 0.550614
253 1 0.287332 0.667994 0.543005
768 2 0.459943 0.536553 0.557571
219 1 0.634802 0.435836 0.538846
769 2 0.625352 0.60382 0.542731
773 2 0.5966 0.55126 0.578773
319 1 0.580397 0.397425 0.59523
274 1 0.938127 0.634562 0.534182
295 1 0.00212477 0.602155 0.575802
794 2 0.773191 0.564695 0.540115
366 1 0.854748 0.537955 0.578447
822 2 0.129896 0.958313 0.567616
766 2 0.0641042 0.703197 0.52643
288 1 0.526865 0.855518 0.547428
258 1 0.282328 0.962382 0.543177
283 1 0.348519 0.814612 0.564813
277 1 0.263589 0.920096 0.598605
303 1 0.581251 0.713623 0.576529
285 1 0.738137 0.67215 0.568046
308 1 0.602539 0.989435 0.555018
279 1 0.675937 0.771596 0.542641
226 1 0.910022 0.746745 0.565277
297 1 0.910773 0.769795 0.602931
771 2 0.0727885 0.121006 0.555297
775 2 0.0542459 0.74096 0.575343
800 2 0.952401 0.994116 0.577623
302 1 0.0407884 0.0864745 0.637236
276 1 0.222141 0.205128 0.611035
833 2 0.275416 0.227848 0.65689
803 2 0.343552 0.0617285 0.613987
808 2 0.557685 0.979655 0.596934
307 1 0.43569 0.196623 0.633187
335 1 0.548532 0.0894337 0.626588
783 2 0.728357 0.0294618 0.586887
289 1 0.609374 0.154631 0.550843
804 2 0.616859 0.125227 0.591692
281 1 0.898309 0.0384143 0.6489
849 2 0.874931 0.891252 0.654695
784 2 0.942714 0.207327 0.62222
785 2 0.81961 0.154684 0.59747
824 2 0.841065 0.988121 0.615225
286 1 0.0380548 0.356163 0.575765
781 2 0.0777171 0.276108 0.607372
832 2 0.260521 0.39172 0.583041
801 2 0.0679871 0.338075 0.660562
333 1 0.332595 0.328976 0.620111
782 2 0.493526 0.378284 0.630772
787 2 0.421339 0.395311 0.589907
331 1 0.18268 0.364416 0.632217
807 2 0.37234 0.34145 0.657067
809 2 0.641857 0.279983 0.572128
834 2 0.668426 0.418082 0.638373
313 1 0.723843 0.492203 0.6042
339 1 0.590603 0.265425 0.625341
306 1 0.724196 0.271172 0.607773
311 1 0.859254 0.348626 0.600983
315 1 0.837311 0.459576 0.635063
795 2 0.0760725 0.650596 0.650695
342 1 0.210955 0.611606 0.603991
322 1 0.394825 0.683541 0.584492
347 1 0.306471 0.500397 0.653512
323 1 0.458773 0.514466 0.611695
818 2 0.506894 0.660125 0.614843
338 1 0.61069 0.563966 0.624225
813 2 0.809806 0.621791 0.61859
324 1 0.688441 0.721027 0.624476
343 1 0.645652 0.612562 0.677505
814 2 0.0918713 0.717935 0.614454
320 1 0.970306 0.448734 0.608663
349 1 0.980043 0.602116 0.61365
796 2 0.0822836 0.04309 0.598011
798 2 0.266878 0.761937 0.595276
271 1 0.099822 0.856965 0.597357
327 1 0.301943 0.940114 0.643743
326 1 0.151208 0.970702 0.63466
821 2 0.186902 0.825623 0.625822
777 2 0.352425 0.643138 0.6246
348 1 0.440904 0.850795 0.599877
329 1 0.4484 0.983287 0.629107
823 2 0.671525 0.859226 0.573373
819 2 0.448092 0.777934 0.645385
280 1 0.979496 0.921217 0.620088
325 1 0.720705 0.886132 0.616087
332 1 0.129955 0.177203 0.663698
851 2 0.258868 0.163917 0.70402
802 2 0.0390076 0.0616601 0.678672
871 2 0.914919 0.158547 0.699229
352 1 0.101168 0.106819 0.717448
358 1 0.408084 0.192606 0.677363
872 2 0.192225 0.00346222 0.668535
334 1 0.450114 0.0437204 0.695628
353 1 0.396741 0.143786 0.728013
304 1 0.681504 0.023345 0.631708
835 2 0.605925 0.154274 0.666815
301 1 0.564629 4.8718e-05 0.66027
826 2 0.782873 0.156959 0.644346
360 1 0.665638 0.318129 0.69988
376 1 0.648507 0.0329755 0.691802
305 1 0.799073 0.0824023 0.68454
846 2 0.877572 0.994265 0.70833
810 2 0.9358 0.18412 0.662168
829 2 0.184756 0.321235 0.684959
806 2 0.286059 0.454812 0.692741
357 1 0.934513 0.42341 0.679999
812 2 0.0950508 0.421144 0.70699
362 1 0.0540217 0.524394 0.683188
805 2 0.0474709 0.283079 0.711004
312 1 0.451262 0.491609 0.688097
364 1 0.375707 0.332374 0.692969
359 1 0.409631 0.321695 0.74887
330 1 0.537736 0.317512 0.666415
365 1 0.724299 0.281271 0.660824
340 1 0.846839 0.310918 0.688847
840 2 0.927661 0.335665 0.649131
816 2 0.987106 0.481757 0.650232
811 2 0.832828 0.515921 0.670347
797 2 0.160853 0.524025 0.634302
815 2 0.0811669 0.753929 0.675369
341 1 0.196735 0.570852 0.675401
328 1 0.208168 0.698595 0.651838
317 1 0.489663 0.638175 0.654675
316 1 0.50894 0.64949 0.700357
862 2 0.352741 0.639476 0.683391
837 2 0.526077 0.491168 0.656909
345 1 0.712579 0.570351 0.714048
845 2 0.811254 0.749886 0.646889
844 2 0.673255 0.470168 0.685394
839 2 0.733297 0.569577 0.645821
860 2 0.901752 0.630921 0.656104
836 2 0.910638 0.783312 0.677285
848 2 0.786513 0.679621 0.684567
847 2 0.267712 0.772169 0.683182
841 2 0.137916 0.940146 0.700378
346 1 0.179205 0.860025 0.663247
372 1 0.366607 0.0598834 0.663333
842 2 0.324518 0.801197 0.630311
827 2 0.321942 0.93341 0.687649
873 2 0.459833 0.903216 0.662665
350 1 0.68996 0.828407 0.6567
843 2 0.565541 0.757138 0.672835
374 1 0.558599 0.863542 0.62483
375 1 0.671546 0.766477 0.69975
850 2 0.750594 0.9138 0.68596
820 2 0.0255639 0.892316 0.659794
825 2 0.977041 0.764273 0.635525
865 2 0.999129 0.893751 0.700197
852 2 0.185104 0.020478 0.749874
881 2 0.128794 0.214616 0.748731
354 1 0.594271 0.00578142 0.729885
377 1 0.286223 0.00987584 0.717374
854 2 0.278224 0.225592 0.75482
397 1 0.372105 0.99363 0.757513
909 2 0.605349 0.163754 0.745111
859 2 0.705998 0.17143 0.717334
864 2 0.550538 0.185673 0.702769
390 1 0.859436 0.273199 0.726653
414 1 0.538458 0.274215 0.766679
855 2 0.839408 0.104233 0.738216
830 2 0.0080305 0.985076 0.7311
371 1 0.895319 0.924245 0.751587
876 2 0.97302 0.163281 0.73639
416 1 0.028258 0.539021 0.726966
863 2 0.117392 0.390016 0.748464
861 2 0.870964 0.554733 0.705272
786 2 0.259474 0.32168 0.723589
318 1 0.589939 0.46301 0.710649
389 1 0.45286 0.12585 0.764191
369 1 0.252545 0.396076 0.761024
400 1 0.372276 0.484359 0.753381
361 1 0.761769 0.408104 0.716127
370 1 0.508173 0.31247 0.717301
410 1 0.536955 0.427793 0.751575
356 1 0.940233 0.0586994 0.768396
351 1 0.926967 0.421427 0.716837
386 1 0.879755 0.511783 0.743392
831 2 0.177976 0.565737 0.747936
368 1 0.15094 0.62609 0.70885
891 2 0.00165682 0.664252 0.704245
866 2 0.310188 0.735368 0.775158
838 2 0.425551 0.782561 0.696206
828 2 0.323078 0.581433 0.721569
874 2 0.591205 0.612387 0.731091
898 2 0.385036 0.730245 0.734842
336 1 0.693415 0.488072 0.747081
868 2 0.593362 0.582591 0.773781
404 1 0.58394 0.749386 0.760272
344 1 0.814814 0.85195 0.717208
858 2 0.864673 0.648458 0.734692
870 2 0.743201 0.684304 0.752644
895 2 0.663845 0.708875 0.792549
886 2 0.279858 0.858738 0.72068
867 2 0.135205 0.780423 0.709625
367 1 0.132112 0.865525 0.743703
900 2 0.271162 0.872488 0.75751
398 1 0.00315816 0.80394 0.77668
424 1 0.0898576 0.705043 0.741673
373 1 0.232926 0.701458 0.735243
423 1 0.429568 0.908331 0.723563
382 1 0.483348 0.0389542 0.795339
355 1 0.553408 0.89192 0.693588
379 1 0.524076 0.935914 0.756033
337 1 0.544217 0.75901 0.723814
869 2 0.631001 0.036742 0.772109
422 1 0.657913 0.852475 0.739773
387 1 0.955672 0.788428 0.732666
875 2 0.74537 0.984133 0.730944
473 1 0.826922 0.795071 0.763159
435 1 0.00984957 0.332815 0.799813
877 2 0.0353681 0.145078 0.784936
413 1 0.219668 0.0461229 0.817363
896 2 0.0440136 0.953151 0.779675
882 2 0.381373 0.252044 0.788122
857 2 0.174609 0.248254 0.791454
892 2 0.287429 0.09725 0.780482
853 2 0.771015 0.128126 0.769444
924 2 0.580924 0.195281 0.804566
949 2 0.603582 0.0195499 0.8139
920 2 0.722037 0.146455 0.811302
405 1 0.890899 0.129649 0.805787
401 1 0.899739 0.933136 0.821807
425 1 0.790792 0.987236 0.787991
879 2 0.886294 0.23675 0.777256
381 1 0.0724514 0.466725 0.785221
407 1 0.943426 0.382547 0.835446
412 1 0.134823 0.302154 0.824525
393 1 0.296471 0.419648 0.796928
887 2 0.433297 0.525605 0.791366
884 2 0.447776 0.387222 0.784269
443 1 0.293823 0.422898 0.835539
889 2 0.674976 0.334255 0.738399
930 2 0.690702 0.273153 0.784672
394 1 0.555397 0.516081 0.814068
941 2 0.42301 0.265554 0.822991
964 2 0.551792 0.356857 0.818004
429 1 0.367324 0.546169 0.825551
385 1 0.90135 0.382562 0.781295
384 1 0.98883 0.300079 0.752564
406 1 0.996723 0.491584 0.814399
411 1 0.128074 0.44555 0.8277
363 1 0.994108 0.652864 0.802164
408 1 0.277027 0.593284 0.779732
917 2 0.141489 0.716836 0.781035
893 2 0.451049 0.659765 0.772594
919 2 0.545429 0.816952 0.799365
449 1 0.403397 0.692555 0.807017
939 2 0.551318 0.667173 0.820229
391 1 0.636379 0.445365 0.785157
415 1 0.698635 0.572817 0.806916
935 2 0.868195 0.515608 0.83867
885 2 0.997583 0.624305 0.762119
890 2 0.827452 0.531708 0.776399
856 2 0.818049 0.678355 0.796353
392 1 0.11591 0.902354 0.820083
910 2 0.216079 0.946229 0.786598
383 1 0.280842 0.766822 0.812955
897 2 0.0428468 0.0464623 0.8101
499 1 0.291856 0.929526 0.84006
388 1 0.364013 0.101339 0.823639
430 1 0.399772 0.854903 0.768848
378 1 0.344849 0.940138 0.805344
923 2 0.443588 0.818135 0.825021
380 1 0.484864 0.976411 0.845318
396 1 0.697079 0.874973 0.782567
399 1 0.593954 0.837395 0.837782
899 2 0.758962 0.876735 0.825203
420 1 0.841616 0.837719 0.797204
421 1 0.783428 0.0179931 0.831568
880 2 0.0294295 0.185771 0.827954
908 2 0.987651 0.147324 0.878968
937 2 0.267389 0.283903 0.873091
431 1 0.201341 0.10868 0.865699
427 1 0.568358 0.0992718 0.921519
883 2 0.566217 0.123514 0.839986
878 2 0.262266 0.218572 0.82919
409 1 0.549278 0.283106 0.861547
434 1 0.412498 0.0996808 0.871337
904 2 0.667152 0.982963 0.859367
459 1 0.684379 0.0446425 0.901338
481 1 0.635645 0.138391 0.870793
402 1 0.849835 0.0828479 0.881696
426 1 0.923065 0.258 0.859211
950 2 0.796488 0.00994673 0.931928
418 1 0.284165 0.437497 0.875116
912 2 0.1069 0.376545 0.86976
934 2 0.399724 0.239719 0.861796
913 2 0.301836 0.667899 0.838826
984 2 0.472193 0.444651 0.845917
460 1 0.754466 0.419767 0.802039
888 2 0.679829 0.260434 0.840152
975 2 0.775099 0.161886 0.857355
960 2 0.72803 0.440112 0.882713
944 2 0.015406 0.500171 0.859226
417 1 0.819359 0.265954 0.816118
905 2 0.796 0.360414 0.853073
441 1 0.0853237 0.640132 0.861769
940 2 0.136038 0.584067 0.822728
901 2 0.213198 0.569529 0.863569
902 2 0.161635 0.622993 0.897598
440 1 0.375567 0.571154 0.863658
894 2 0.288608 0.683959 0.881359
943 2 0.473334 0.707713 0.85081
458 1 0.506775 0.664076 0.889097
445 1 0.693855 0.456834 0.84025
914 2 0.630829 0.680367 0.864998
946 2 0.786342 0.78173 0.933656
915 2 0.769063 0.587987 0.86293
497 1 0.929307 0.647413 0.872835
395 1 0.686117 0.718957 0.83519
972 2 0.855043 0.678224 0.840255
945 2 0.827781 0.778054 0.879902
916 2 0.0913006 0.985767 0.853192
942 2 0.159966 0.757664 0.84116
428 1 0.957364 0.907592 0.856608
452 1 0.0584534 0.798095 0.874597
921 2 0.208241 0.921369 0.874623
948 2 0.387566 0.933654 0.874681
403 1 0.495198 0.845131 0.872338
925 2 0.333372 0.801045 0.85996
450 1 0.540809 0.0301925 0.886517
472 1 0.642597 0.837798 0.881483
991 2 0.389215 0.778726 0.897888
922 2 0.926252 0.0588933 0.84802
931 2 0.793507 0.911181 0.864487
911 2 0.036615 0.769503 0.827227
451 1 0.919484 0.926624 0.891887
453 1 0.231979 0.0241767 0.91342
457 1 0.146748 0.143645 0.909379
932 2 0.104648 0.223112 0.862934
433 1 0.203065 0.0802892 0.952914
446 1 0.396814 0.197422 0.937091
479 1 0.739919 0.193956 0.922804
20 1 0.637904 0.965463 0.932171
954 2 0.979359 0.0619702 0.922276
983 2 0.00675638 0.217506 0.914081
976 2 0.835668 0.273723 0.891664
436 1 0.92637 0.380482 0.889292
470 1 0.135145 0.283044 0.903016
438 1 0.180807 0.435288 0.907212