ITEM: TIMESTEP
17760
ITEM: NUMBER OF ATOMS
1000
ITEM: BOX BOUNDS pp pp pp
0.0000000000000000e+00 6.2996052494743662e+00
0.0000000000000000e+00 6.2996052494743662e+00
0.0000000000000000e+00 2.5198420997897465e+01
ITEM: ATOMS id type xs ys zs
51 1 0.156212 0.178962 0.0497579
951 2 0.155721 0.978563 0.0507682
46 1 0.116988 0.069948 0.9917
526 2 0.348421 0.0281301 0.0193858
512 2 0.215514 0.11311 0.0170263
548 2 0.453784 0.0405941 0.0592644
34 1 0.400954 0.164053 0.00953713
518 2 0.714527 0.0610527 0.0262801
507 2 0.538174 0.0907649 0.0247718
27 1 0.678308 0.233973 0.0367731
471 1 0.0427305 0.206891 0.0179844
918 2 0.842374 0.168045 0.0448334
973 2 0.792253 0.137681 0.000769787
510 2 0.145711 0.373357 0.0472551
927 2 0.104958 0.30611 0.987558
482 1 0.21493 0.441286 0.021474
454 1 0.181796 0.559956 0.998438
980 2 0.226891 0.554817 0.957313
952 2 0.251339 0.334398 0.991998
511 2 0.380929 0.307901 0.0225415
986 2 0.446525 0.193892 0.966898
92 1 0.178851 0.281749 0.0213081
29 1 0.554537 0.253348 0.00528237
527 2 0.490924 0.245153 0.0445553
477 1 0.648463 0.442277 0.0604262
71 1 0.934671 0.364276 0.0732964
73 1 0.790182 0.462314 0.0157242
13 1 0.907968 0.455699 0.990441
977 2 0.785814 0.359366 0.0487259
487 1 0.953205 0.598165 0.0450263
139 1 0.0777517 0.706061 0.0310689
63 1 0.407468 0.469821 0.0240275
48 1 0.288891 0.561122 0.0254547
947 2 0.549769 0.798877 0.00946925
514 2 0.373738 0.517907 0.0660545
15 1 0.561699 0.572029 0.0667435
520 2 0.681507 0.549624 0.03365
33 1 0.416719 0.645263 0.0256529
529 2 0.839793 0.489352 0.0616424
987 2 0.929488 0.756243 0.0313132
49 1 0.82294 0.652466 0.0532253
37 1 0.903714 0.912033 0.0242115
532 2 0.0678459 0.759729 0.0689219
508 2 0.830531 0.611525 0.0151028
70 1 0.223215 0.790089 0.0365356
979 2 0.205968 0.95489 0.00379505
488 1 0.95136 0.0728894 0.0172326
478 1 0.275821 0.69371 0.00330012
23 1 0.353532 0.842236 0.0278543
12 1 0.385305 0.917431 0.991693
555 2 0.308497 0.942153 0.0574055
36 1 0.743915 0.912227 0.0433027
4 1 0.56197 0.941986 0.999184
516 2 0.47113 0.919712 0.032053
95 1 0.571886 0.841728 0.0555521
6 1 0.6413 0.692349 0.0390009
498 1 0.881222 0.00777886 0.0576047
61 1 0.75292 0.782656 0.023247
581 2 0.166233 0.129363 0.089583
560 2 0.289794 0.0765075 0.0745185
599 2 0.191046 0.119752 0.129503
513 2 0.350685 0.127537 0.10861
468 1 0.501769 0.0236519 0.0993296
45 1 0.601883 0.975936 0.065011
558 2 0.507717 0.223207 0.0996335
982 2 0.575536 0.13183 0.0718943
59 1 0.694539 0.00401935 0.108844
525 2 0.736945 0.100133 0.0761282
528 2 0.911573 0.191152 0.0794363
541 2 0.876514 0.0263587 0.0967846
546 2 0.224123 0.270225 0.0733903
65 1 0.0113641 0.481545 0.0818636
41 1 0.0533095 0.235854 0.070242
52 1 0.333895 0.368611 0.0612181
17 1 0.358373 0.224803 0.0616829
552 2 0.476864 0.414235 0.0539634
89 1 0.364431 0.294825 0.0987127
78 1 0.27951 0.505843 0.103604
62 1 0.410986 0.437577 0.103374
565 2 0.723836 0.444335 0.0945377
554 2 0.75314 0.298536 0.0803575
561 2 0.602134 0.288154 0.069391
566 2 0.710329 0.182954 0.111324
485 1 0.889962 0.444192 0.106841
42 1 0.822486 0.31169 0.122419
575 2 0.0211038 0.389533 0.114578
85 1 0.0845388 0.589043 0.0564274
9 1 0.241895 0.664304 0.055258
7 1 0.166012 0.695701 0.0914979
594 2 0.0313083 0.6284 0.0962672
28 1 0.210297 0.499921 0.0677811
533 2 0.440089 0.590576 0.0958523
538 2 0.305693 0.666997 0.0909062
521 2 0.694025 0.608501 0.0772394
56 1 0.553693 0.465153 0.0930363
86 1 0.766859 0.694267 0.107914
77 1 0.921169 0.564447 0.12719
35 1 0.85512 0.591732 0.0919533
40 1 0.929757 0.71222 0.0781031
981 2 0.718597 0.529198 0.12765
542 2 0.264351 0.805913 0.0728225
597 2 0.0757579 0.864924 0.0385711
98 1 0.130952 0.833452 0.107735
53 1 0.195774 0.981624 0.0950925
38 1 0.348313 0.965825 0.0980469
547 2 0.454371 0.823878 0.102388
537 2 0.490897 0.697115 0.0597941
509 2 0.416793 0.849848 0.0663136
524 2 0.738727 0.778608 0.0699032
545 2 0.586236 0.729608 0.0889072
21 1 0.655984 0.862525 0.102833
967 2 0.0204938 0.0697966 0.0607071
534 2 0.763651 0.930287 0.0817567
39 1 0.89856 0.855172 0.0717486
589 2 0.223792 0.271066 0.112437
577 2 0.0263371 0.0881146 0.0984842
539 2 0.0251135 0.119771 0.143482
54 1 0.0436297 0.967384 0.162474
638 2 0.0981285 0.310506 0.160173
543 2 0.364217 0.127631 0.146294
68 1 0.377673 0.954931 0.175687
112 1 0.307981 0.102752 0.186477
99 1 0.542798 0.130351 0.129122
90 1 0.657535 0.144179 0.180726
117 1 0.68954 0.0424189 0.152201
559 2 0.0500281 0.23404 0.107754
486 1 0.918412 0.156326 0.118932
118 1 0.838829 0.0075689 0.143268
57 1 0.143724 0.385263 0.0877902
544 2 0.0568991 0.470678 0.144427
105 1 0.459412 0.259406 0.151433
82 1 0.194352 0.396549 0.138967
76 1 0.24539 0.22088 0.156251
595 2 0.364643 0.395079 0.141999
101 1 0.40014 0.252291 0.189456
590 2 0.721875 0.389618 0.142499
557 2 0.626499 0.259897 0.142313
576 2 0.624752 0.339129 0.108543
100 1 0.638375 0.428092 0.190407
50 1 0.536015 0.40623 0.135709
93 1 0.907042 0.42027 0.146171
60 1 0.782882 0.188518 0.149423
985 2 0.137152 0.515458 0.113434
125 1 0.174149 0.538272 0.164563
107 1 0.0665939 0.678874 0.13453
553 2 0.933134 0.735679 0.174288
11 1 0.241813 0.657028 0.147695
998 2 0.588073 0.586197 0.115714
551 2 0.287309 0.779873 0.121903
519 2 0.422736 0.527338 0.148664
116 1 0.430409 0.669617 0.131289
64 1 0.610466 0.521167 0.153287
647 2 0.498185 0.553823 0.186438
636 2 0.00663339 0.601868 0.165947
80 1 0.789204 0.510718 0.158644
83 1 0.782503 0.679008 0.173555
604 2 0.668886 0.69225 0.151705
963 2 0.0941023 0.00426726 0.126628
88 1 0.958584 0.940328 0.127824
141 1 0.0743271 0.822033 0.149115
72 1 0.254443 0.949201 0.128545
97 1 0.237256 0.85942 0.162935
570 2 0.389523 0.813734 0.147681
587 2 0.436001 0.00402386 0.138095
120 1 0.173497 0.0385722 0.167728
598 2 0.582407 0.771449 0.129297
502 2 0.523065 0.672474 0.163121
14 1 0.685995 0.857749 0.151278
108 1 0.707595 0.935103 0.187772
971 2 0.582084 0.955282 0.13165
550 2 0.795405 0.84602 0.112069
517 2 0.861234 0.870151 0.15899
104 1 0.866927 0.689377 0.143176
44 1 0.0449952 0.919925 0.0872263
10 1 0.9722 0.790367 0.12076
583 2 0.936657 0.0424829 0.209079
569 2 0.0783004 0.172597 0.190693
671 2 0.46784 0.115958 0.172351
74 1 0.248094 0.964702 0.199958
586 2 0.58451 0.0153058 0.185529
603 2 0.216265 0.091984 0.221586
626 2 0.527168 0.146652 0.205298
102 1 0.726791 0.0586284 0.205022
540 2 0.539474 0.859106 0.167071
578 2 0.940618 0.898199 0.192387
530 2 0.861853 0.0945171 0.172118
109 1 0.955856 0.260749 0.151696
26 1 0.868343 0.225005 0.186318
957 2 0.0926598 0.362631 0.201645
535 2 0.282559 0.381806 0.176007
585 2 0.16257 0.494252 0.205105
582 2 0.105845 0.402342 0.235656
610 2 0.142121 0.23211 0.23673
91 1 0.323377 0.524828 0.179423
611 2 0.217743 0.268544 0.193301
609 2 0.382879 0.440232 0.204805
607 2 0.371486 0.112594 0.216142
556 2 0.478616 0.416924 0.173691
670 2 0.55529 0.284782 0.185672
592 2 0.578838 0.299704 0.226778
1 1 0.990672 0.433027 0.182669
157 1 0.718668 0.285055 0.178271
622 2 0.811821 0.457924 0.247488
161 1 0.682566 0.201764 0.214837
567 2 0.917549 0.399123 0.215542
87 1 0.0171455 0.558869 0.203019
169 1 0.922051 0.649156 0.222957
144 1 0.0909208 0.703649 0.185292
591 2 0.159796 0.7725 0.227863
606 2 0.223807 0.659739 0.199464
593 2 0.371666 0.654301 0.166936
665 2 0.371836 0.649218 0.207958
84 1 0.529884 0.45349 0.218907
150 1 0.655009 0.62265 0.191554
621 2 0.738366 0.354566 0.21839
531 2 0.67172 0.798297 0.223465
619 2 0.532086 0.689098 0.206568
642 2 0.84983 0.552256 0.192745
564 2 0.82839 0.405103 0.18725
632 2 0.767616 0.644651 0.22478
127 1 0.100324 0.0163497 0.202042
122 1 0.128438 0.869854 0.192716
616 2 0.0112727 0.763137 0.212866
562 2 0.380658 0.921624 0.213599
66 1 0.278821 0.818165 0.202435
149 1 0.420672 0.768515 0.189192
69 1 0.54555 0.841815 0.24966
131 1 0.542769 0.886862 0.206065
628 2 0.0205292 0.914061 0.229472
113 1 0.633457 0.776716 0.186261
615 2 0.777394 0.91991 0.22443
596 2 0.791665 0.823459 0.193662
580 2 0.967222 0.266331 0.219136
667 2 0.0616434 0.0983472 0.235158
652 2 0.0526903 0.100847 0.298455
124 1 0.540679 0.845838 0.286315
140 1 0.228957 0.0901034 0.2704
536 2 0.5146 0.0216361 0.226537
572 2 0.294537 0.200427 0.247976
110 1 0.58086 0.163257 0.247496
129 1 0.714866 0.336912 0.2579
601 2 0.961477 0.0197389 0.267638
630 2 0.831157 0.0735235 0.246204
135 1 0.82542 0.240271 0.229403
649 2 0.137269 0.224844 0.273562
123 1 0.90541 0.209393 0.269795
166 1 0.185937 0.348757 0.280151
618 2 0.304901 0.195923 0.294942
608 2 0.29367 0.370756 0.227899
634 2 0.186038 0.541206 0.264544
145 1 0.0373709 0.495915 0.272452
640 2 0.345193 0.331673 0.270753
612 2 0.45268 0.441321 0.296893
653 2 0.455001 0.241468 0.24671
651 2 0.293728 0.532839 0.222811
623 2 0.586272 0.268371 0.274277
627 2 0.563079 0.411387 0.262531
130 1 0.92593 0.347747 0.255059
691 2 0.727619 0.471735 0.288211
563 2 0.0833069 0.816575 0.261738
247 1 0.0862737 0.668614 0.273909
121 1 0.0946993 0.621365 0.238599
672 2 0.284741 0.691941 0.250641
115 1 0.41173 0.762142 0.232441
635 2 0.474213 0.615707 0.236161
164 1 0.421924 0.447737 0.246921
148 1 0.366163 0.569823 0.26612
55 1 0.660227 0.500004 0.239686
637 2 0.717485 0.611398 0.271694
617 2 0.578145 0.560271 0.282885
675 2 0.850058 0.750618 0.28461
155 1 0.628 0.651848 0.241927
111 1 0.908766 0.806481 0.238503
641 2 0.884919 0.555109 0.285837
568 2 0.943388 0.511122 0.241821
152 1 0.868222 0.649417 0.257415
231 1 0.959901 0.865957 0.277832
128 1 0.250849 0.926592 0.271646
176 1 0.106559 0.982175 0.26742
142 1 0.220175 0.767978 0.277055
614 2 0.101179 0.851189 0.299378
613 2 0.229532 0.936657 0.234744
579 2 0.352647 0.0483242 0.251995
134 1 0.384334 0.902975 0.250701
147 1 0.669745 0.905358 0.265588
605 2 0.660184 0.0138102 0.240925
655 2 0.632061 0.744733 0.277598
94 1 0.828663 0.935601 0.260498
648 2 0.765318 0.789628 0.254403
81 1 0.797213 0.898462 0.295882
625 2 0.924465 0.978084 0.304479
680 2 0.0469634 0.972318 0.32481
690 2 0.0956169 0.134081 0.335072
185 1 0.222969 0.101882 0.313871
179 1 0.019155 0.242631 0.307978
151 1 0.436276 0.12948 0.284854
201 1 0.401157 0.934319 0.290561
602 2 0.36585 0.0354467 0.324963
679 2 0.57831 0.144654 0.298765
686 2 0.475237 0.135524 0.330387
238 1 0.512862 0.00249449 0.314676
189 1 0.697472 0.285503 0.342143
202 1 0.751213 0.123274 0.319339
172 1 0.907312 0.141473 0.316704
133 1 0.858123 0.263482 0.334288
719 2 0.784133 0.0875825 0.284449
749 2 0.77353 0.174824 0.366286
165 1 0.850071 0.325364 0.372846
715 2 0.971554 0.143926 0.365663
119 1 0.330499 0.354351 0.312
639 2 0.00378266 0.510923 0.36105
687 2 0.244736 0.249736 0.336692
138 1 0.469393 0.273977 0.305217
126 1 0.450344 0.40257 0.338272
137 1 0.24038 0.471932 0.305452
67 1 0.550857 0.288101 0.359765
699 2 0.741202 0.256716 0.288664
154 1 0.706888 0.597504 0.311103
114 1 0.628816 0.360751 0.312726
160 1 0.848275 0.382591 0.28515
664 2 0.999957 0.379993 0.289197
629 2 0.982751 0.395062 0.335855
194 1 0.789295 0.386587 0.320685
697 2 0.14401 0.600613 0.310151
620 2 0.147993 0.49041 0.341299
720 2 0.140334 0.523305 0.378211
682 2 0.0645296 0.64903 0.344249
153 1 0.0124162 0.72697 0.311109
195 1 0.450082 0.61466 0.301976
168 1 0.343272 0.515561 0.329567
624 2 0.29664 0.657102 0.299017
207 1 0.228663 0.644631 0.341608
657 2 0.575247 0.503427 0.364377
170 1 0.864751 0.517937 0.339671
650 2 0.552199 0.508211 0.324467
198 1 0.749635 0.784077 0.320869
645 2 0.623519 0.665606 0.343868
158 1 0.930821 0.660166 0.357235
178 1 0.99761 0.512413 0.314227
175 1 0.861918 0.65771 0.315876
177 1 0.257215 0.92314 0.314602
159 1 0.08128 0.832073 0.343077
221 1 0.209377 0.773459 0.317997
103 1 0.460759 0.712851 0.273008
183 1 0.533229 0.0225077 0.270217
658 2 0.369515 0.794548 0.290979
163 1 0.364387 0.722885 0.330605
696 2 0.417574 0.886852 0.332367
146 1 0.465299 0.626218 0.34485
724 2 0.661726 0.973764 0.300065
673 2 0.765696 0.944486 0.337975
703 2 0.545871 0.754472 0.315959
662 2 0.906558 0.0362205 0.342385
588 2 0.911834 0.852119 0.326948
705 2 0.995979 0.916446 0.371382
181 1 0.26068 0.243109 0.372914
681 2 0.223429 0.999046 0.397252
236 1 0.258445 0.0837337 0.352234
136 1 0.364452 0.145626 0.381236
190 1 0.593173 0.127615 0.364666
187 1 0.723397 0.18739 0.409844
698 2 0.686883 0.0271594 0.38144
706 2 0.503827 0.00350696 0.393268
162 1 0.570294 0.252787 0.399745
716 2 0.708223 0.323018 0.390942
211 1 0.00517321 0.276368 0.353578
709 2 0.866648 0.189611 0.393763
240 1 0.059116 0.204213 0.398936
180 1 0.131775 0.355946 0.362072
584 2 0.164527 0.328448 0.407289
106 1 0.160568 0.354995 0.319882
656 2 0.292737 0.411831 0.353714
643 2 0.392944 0.272301 0.350389
677 2 0.260487 0.423165 0.392444
678 2 0.368328 0.290551 0.401963
188 1 0.463494 0.407764 0.383119
669 2 0.627261 0.438362 0.398125
237 1 0.734419 0.430957 0.358124
666 2 0.773611 0.479533 0.41353
692 2 0.827914 0.321926 0.413979
710 2 0.00454216 0.375495 0.39071
644 2 0.869777 0.464342 0.380282
700 2 0.0366315 0.699512 0.384055
196 1 0.175375 0.580995 0.415113
200 1 0.160031 0.777697 0.413954
712 2 0.193445 0.68086 0.377399
661 2 0.381872 0.541307 0.374667
143 1 0.46979 0.545091 0.403085
220 1 0.358674 0.633465 0.422173
725 2 0.440447 0.688369 0.385798
171 1 0.539174 0.681867 0.41768
674 2 0.788692 0.607821 0.371353
156 1 0.0280142 0.560763 0.402336
191 1 0.888069 0.605257 0.416316
676 2 0.909323 0.810955 0.386853
660 2 0.107401 0.028303 0.372141
225 1 0.135598 0.86199 0.378084
212 1 0.312392 0.797967 0.362939
205 1 0.0209665 0.0274818 0.404192
197 1 0.218544 0.914077 0.349926
646 2 0.385362 0.923612 0.3722
741 2 0.485851 0.827767 0.400537
717 2 0.498992 0.810269 0.358909
633 2 0.61698 0.902996 0.39501
631 2 0.657795 0.821945 0.352781
173 1 0.678013 0.756031 0.404962
209 1 0.776128 0.865335 0.379532
654 2 0.0259152 0.870595 0.41332
689 2 0.790831 0.0731575 0.425586
224 1 0.572301 0.954032 0.355309
251 1 0.861164 0.0555608 0.380562
184 1 0.0876768 0.226748 0.442838
791 2 0.258123 0.0169799 0.451134
772 2 0.0857213 0.0434257 0.450029
767 2 0.952876 0.312986 0.476444
763 2 0.9997 0.158291 0.466981
182 1 0.463371 0.132319 0.422216
321 1 0.20394 0.176626 0.408159
792 2 0.193819 0.156058 0.461684
713 2 0.33322 0.220114 0.445113
257 1 0.313432 0.0784482 0.41803
738 2 0.587321 0.0898015 0.466358
233 1 0.47895 0.26344 0.437554
702 2 0.631389 0.045319 0.42274
683 2 0.822468 0.0400477 0.466015
193 1 0.80751 0.233205 0.440559
718 2 0.795572 0.264366 0.480675
659 2 0.958847 0.103767 0.432795
242 1 0.108014 0.278045 0.482483
261 1 0.0771636 0.407409 0.461279
186 1 0.0864153 0.493263 0.492839
745 2 0.227196 0.426562 0.486524
688 2 0.287244 0.468716 0.42832
265 1 0.360096 0.388971 0.455119
736 2 0.206818 0.355443 0.445338
714 2 0.469989 0.404698 0.424348
216 1 0.684951 0.326755 0.431561
685 2 0.772367 0.51711 0.452
234 1 0.852503 0.374233 0.44882
239 1 0.976298 0.319825 0.427395
217 1 0.931582 0.459309 0.422498
275 1 0.923404 0.485546 0.484131
199 1 0.31431 0.75862 0.400823
203 1 0.0982528 0.456689 0.421483
222 1 0.171372 0.537233 0.454095
167 1 0.468729 0.529883 0.442865
223 1 0.42524 0.816679 0.444905
296 1 0.27267 0.679156 0.453986
707 2 0.337923 0.757575 0.48789
779 2 0.653013 0.606426 0.389195
132 1 0.63514 0.512503 0.43079
255 1 0.640313 0.595291 0.462803
727 2 0.578949 0.781236 0.454694
737 2 0.0499227 0.639085 0.435445
723 2 0.926919 0.552473 0.448081
693 2 0.947523 0.764512 0.451625
722 2 0.853004 0.663325 0.469385
284 1 0.039236 0.956616 0.478262
746 2 0.282895 0.848105 0.437502
708 2 0.387022 0.945461 0.419145
755 2 0.113033 0.881703 0.445455
213 1 0.420002 0.0215319 0.452756
174 1 0.366994 0.902 0.472853
733 2 0.524195 0.936315 0.432898
206 1 0.74706 0.636261 0.422801
232 1 0.741137 0.920742 0.417851
208 1 0.520674 0.906625 0.47136
753 2 0.672543 0.718116 0.484759
229 1 0.738268 0.778627 0.448009
246 1 0.852031 0.787729 0.421915
684 2 0.911312 0.95328 0.435998
774 2 0.836249 0.866414 0.47161
282 1 0.91724 0.984688 0.507668
250 1 0.0602655 0.805939 0.483186
711 2 0.0475195 0.110848 0.51895
215 1 0.0296886 0.260113 0.514769
272 1 0.207725 0.0329696 0.502368
742 2 0.484701 0.03886 0.490562
259 1 0.191503 0.188972 0.513491
269 1 0.310565 0.105713 0.483713
264 1 0.655675 0.937886 0.454428
289 1 0.709336 0.12119 0.501081
219 1 0.466807 0.207965 0.473648
734 2 0.720611 0.143104 0.458446
308 1 0.726799 0.254287 0.522495
804 2 0.824681 0.0874855 0.532894
704 2 0.897556 0.133684 0.497923
781 2 0.126151 0.264436 0.547451
732 2 0.133827 0.384019 0.515667
740 2 0.984949 0.422411 0.516416
285 1 0.288005 0.287215 0.474125
204 1 0.568218 0.497816 0.483912
258 1 0.306105 0.350021 0.52064
218 1 0.529276 0.382964 0.462284
721 2 0.428834 0.348046 0.490985
260 1 0.610715 0.309424 0.486736
300 1 0.6915 0.421266 0.471544
759 2 0.873772 0.275321 0.517983
739 2 0.832237 0.388251 0.496397
762 2 0.225374 0.584555 0.48635
785 2 0.0582715 0.632914 0.507027
701 2 0.0166001 0.621572 0.470108
793 2 0.0449615 0.653867 0.549679
695 2 0.370939 0.503551 0.492497
766 2 0.400813 0.635076 0.505992
227 1 0.420964 0.638703 0.468006
249 1 0.479288 0.421311 0.524423
314 1 0.616725 0.613749 0.50629
823 2 0.650369 0.487187 0.523514
754 2 0.765962 0.537236 0.495146
230 1 0.890787 0.579076 0.512451
663 2 0.93088 0.753923 0.507458
262 1 0.882699 0.67836 0.542006
290 1 0.117797 0.916214 0.51438
747 2 0.217829 0.867559 0.474013
726 2 0.136925 0.737534 0.455304
780 2 0.0982008 0.771413 0.52197
287 1 0.385696 0.880023 0.512944
735 2 0.246867 0.812658 0.515843
235 1 0.621006 0.994002 0.504658
214 1 0.519738 0.763655 0.498071
309 1 0.769769 0.706608 0.510855
770 2 0.957952 0.827375 0.545667
668 2 0.649516 0.850975 0.510062
757 2 0.0142377 0.997006 0.553194
799 2 0.175969 0.0162412 0.592271
302 1 0.130775 0.436056 0.582128
728 2 0.331861 0.12902 0.531937
281 1 0.064545 0.178592 0.57792
310 1 0.270048 0.954514 0.534682
263 1 0.32394 0.0479614 0.566709
764 2 0.173419 0.101065 0.544064
366 1 0.434083 0.242481 0.517261
778 2 0.571922 0.169573 0.500219
809 2 0.662143 0.121848 0.540731
824 2 0.712782 0.972021 0.536603
268 1 0.793569 0.112386 0.595002
729 2 0.973778 0.223592 0.547872
277 1 0.907031 0.0705857 0.569541
320 1 0.820471 0.204903 0.557615
315 1 0.0903209 0.51819 0.536275
295 1 0.0155413 0.385056 0.554273
298 1 0.0093577 0.547994 0.576351
357 1 0.273665 0.265957 0.546931
228 1 0.398981 0.347244 0.552013
254 1 0.528131 0.258323 0.578625
811 2 0.248336 0.431761 0.553241
299 1 0.440146 0.174179 0.555734
270 1 0.602649 0.269016 0.540535
274 1 0.696766 0.227681 0.579193
761 2 0.705252 0.358906 0.556361
694 2 0.533012 0.424361 0.561261
769 2 0.569013 0.418946 0.598601
244 1 0.926868 0.53019 0.547285
294 1 0.00665796 0.337677 0.598829
765 2 0.860446 0.358337 0.55912
795 2 0.709629 0.373306 0.598078
278 1 0.253193 0.537063 0.524318
283 1 0.219433 0.546365 0.573261
775 2 0.202004 0.68218 0.543975
752 2 0.26705 0.814629 0.552673
748 2 0.393205 0.521938 0.54093
267 1 0.341232 0.668831 0.553941
322 1 0.514345 0.621428 0.543032
288 1 0.399704 0.747075 0.578153
744 2 0.796151 0.461763 0.531545
731 2 0.598393 0.730591 0.528186
245 1 0.708981 0.648646 0.545124
750 2 0.618772 0.564883 0.573325
192 1 0.123734 0.64487 0.586278
730 2 0.964787 0.721145 0.60289
790 2 0.777448 0.535911 0.569035
306 1 0.862325 0.782593 0.572669
865 2 0.811109 0.862646 0.518691
256 1 0.0926715 0.785077 0.567132
751 2 0.180012 0.920481 0.56159
280 1 0.124805 0.90559 0.61481
210 1 0.441688 0.774731 0.535656
266 1 0.417697 0.914877 0.559487
279 1 0.532451 0.905641 0.524682
798 2 0.492453 0.0365345 0.535051
273 1 0.551538 0.770445 0.568078
372 1 0.58926 0.944604 0.568706
783 2 0.697574 0.830772 0.559599
243 1 0.0204271 0.0207825 0.594295
789 2 0.855217 0.939742 0.548649
291 1 0.725014 0.969349 0.580659
802 2 0.155551 0.206228 0.652293
871 2 0.113845 0.152658 0.614993
349 1 0.230618 0.164002 0.580155
319 1 0.349072 0.0993163 0.608271
803 2 0.211676 0.0739153 0.633289
292 1 0.285243 0.223424 0.632443
276 1 0.440988 0.126059 0.649762
348 1 0.46292 0.0403731 0.586794
758 2 0.631102 0.0958359 0.583577
304 1 0.97306 0.163991 0.60789
794 2 0.499099 0.149626 0.608981
374 1 0.569619 0.992894 0.618284
286 1 0.867524 0.951041 0.600478
817 2 0.819959 0.0788915 0.634255
782 2 0.35266 0.246787 0.592644
891 2 0.268934 0.35682 0.649742
368 1 0.19309 0.552761 0.609854
825 2 0.156313 0.299306 0.617203
838 2 0.142355 0.421425 0.643688
341 1 0.285862 0.402801 0.591073
241 1 0.417736 0.456476 0.579735
814 2 0.280035 0.480386 0.633628
253 1 0.372983 0.367697 0.623305
311 1 0.720297 0.210937 0.617979
340 1 0.696532 0.405968 0.632867
845 2 0.846419 0.244545 0.641778
776 2 0.864913 0.457997 0.588818
331 1 0.0095225 0.210875 0.645937
313 1 0.865015 0.277329 0.591561
271 1 0.846544 0.390484 0.625759
813 2 0.732843 0.548505 0.606759
850 2 0.0988996 0.60011 0.644379
796 2 0.133263 0.749422 0.624167
829 2 0.0487 0.486688 0.6184
760 2 0.309994 0.733957 0.639469
864 2 0.995556 0.701934 0.64188
860 2 0.32007 0.65612 0.599854
815 2 0.423435 0.50934 0.624567
350 1 0.469801 0.584265 0.592834
293 1 0.580759 0.542563 0.626014
226 1 0.566016 0.701631 0.605941
826 2 0.69476 0.727172 0.586269
840 2 0.774756 0.538095 0.648591
324 1 0.590042 0.653628 0.653657
808 2 0.735649 0.708421 0.626004
843 2 0.881168 0.645587 0.576675
797 2 0.886271 0.578413 0.61858
788 2 0.0267286 0.0117862 0.632172
800 2 0.0973643 0.853273 0.65302
832 2 0.312968 0.888085 0.596778
777 2 0.223541 0.77429 0.584535
743 2 0.427302 0.762131 0.617382
343 1 0.418998 0.963039 0.624418
818 2 0.25943 0.869823 0.636511
326 1 0.720745 0.966577 0.621959
819 2 0.418616 0.844737 0.656398
325 1 0.469172 0.876202 0.595589
297 1 0.617117 0.868716 0.606073
849 2 0.541973 0.814493 0.637208
822 2 0.99174 0.873687 0.586887
332 1 0.834395 0.699041 0.654413
784 2 0.943169 0.850721 0.640778
301 1 0.816289 0.812557 0.616835
863 2 0.0650531 0.0484748 0.668972
861 2 0.128235 0.27476 0.724016
345 1 0.0501983 0.235926 0.685836
930 2 0.0819097 0.125965 0.712419
416 1 0.290294 0.182176 0.707958
787 2 0.285902 0.191123 0.668891
801 2 0.495922 0.248939 0.678758
900 2 0.398404 0.0451945 0.698385
812 2 0.647474 0.256079 0.698011
333 1 0.570376 0.121559 0.675167
353 1 0.678172 0.968787 0.659614
335 1 0.682167 0.11612 0.647545
859 2 0.776891 0.163906 0.715651
807 2 0.901835 0.108475 0.682594
827 2 0.812784 0.224201 0.678022
365 1 0.753188 0.0620477 0.683444
821 2 0.226488 0.45419 0.677432
771 2 0.195961 0.305302 0.680367
386 1 0.0639381 0.392125 0.696714
848 2 0.157 0.480755 0.715748
376 1 0.441033 0.275055 0.645654
862 2 0.532441 0.381983 0.666209
896 2 0.384834 0.361207 0.684138
328 1 0.581807 0.291897 0.618251
248 1 0.643343 0.281292 0.65724
303 1 0.0130185 0.367041 0.656664
773 2 0.781311 0.392869 0.66663
839 2 0.994345 0.522211 0.719056
836 2 0.184573 0.744664 0.665309
355 1 0.0724982 0.665086 0.69881
334 1 0.0627041 0.525128 0.677188
473 1 0.198171 0.751228 0.716634
364 1 0.365059 0.509493 0.669439
842 2 0.260366 0.61032 0.659564
831 2 0.430398 0.651089 0.641398
424 1 0.253479 0.635276 0.703555
362 1 0.405952 0.621344 0.698898
872 2 0.650221 0.506718 0.671824
847 2 0.501531 0.540382 0.658634
360 1 0.568542 0.613403 0.690785
873 2 0.880752 0.483109 0.683428
379 1 0.888148 0.66723 0.691716
346 1 0.204048 0.0856145 0.686806
867 2 0.156271 0.866106 0.69044
874 2 0.324554 0.029424 0.663509
316 1 0.446095 0.901821 0.695935
756 2 0.341707 0.753564 0.683691
317 1 0.493753 0.734653 0.675391
342 1 0.748656 0.879285 0.711501
327 1 0.51199 0.994756 0.660807
909 2 0.610348 0.87927 0.680657
305 1 0.749516 0.832371 0.663472
252 1 0.0151378 0.771179 0.676478
810 2 0.886088 0.937026 0.667742
854 2 0.88006 0.812682 0.696612
358 1 0.738 0.625309 0.687077
846 2 0.97023 0.956369 0.703093
359 1 0.183782 0.138035 0.741619
880 2 0.341843 0.0875593 0.749498
377 1 0.993508 0.00393988 0.739145
323 1 0.505649 0.0144453 0.736856
851 2 0.458637 0.161758 0.716545
837 2 0.696216 0.998519 0.739289
443 1 0.617601 0.0215617 0.704943
337 1 0.846476 0.0169496 0.712055
361 1 0.929939 0.18925 0.71527
853 2 0.861144 0.0997355 0.743705
410 1 0.872236 0.342315 0.777262
387 1 0.00560086 0.324505 0.749518
338 1 0.279306 0.338102 0.708976
835 2 0.249377 0.376044 0.750173
990 2 0.126434 0.244422 0.763735
834 2 0.545098 0.300454 0.718828
858 2 0.361193 0.494918 0.721862
828 2 0.515794 0.211296 0.752307
816 2 0.854521 0.278061 0.741199
390 1 0.688417 0.264464 0.737346
901 2 0.45099 0.403105 0.746741
375 1 0.616502 0.149322 0.725945
844 2 0.643914 0.410221 0.69927
370 1 0.931636 0.345118 0.694872
422 1 0.895572 0.423086 0.729858
855 2 0.0924046 0.459447 0.751297
881 2 0.263654 0.558956 0.744987
805 2 0.184866 0.498195 0.780922
384 1 0.102375 0.629307 0.736634
879 2 0.208565 0.635962 0.773535
820 2 0.360721 0.675763 0.737754
367 1 0.557632 0.513945 0.729285
768 2 0.498754 0.483604 0.696842
430 1 0.7284 0.43451 0.729483
935 2 0.607264 0.382005 0.747421
889 2 0.654479 0.461429 0.792319
391 1 0.597917 0.578377 0.769195
389 1 0.800582 0.708251 0.731309
875 2 0.913914 0.520556 0.759541
397 1 0.771598 0.32919 0.703403
423 1 0.808491 0.555377 0.71201
898 2 0.676919 0.633723 0.718805
870 2 0.900792 0.706999 0.76143
869 2 0.293335 0.930303 0.696591
852 2 0.166779 0.00522752 0.717244
398 1 0.115827 0.866432 0.727313
420 1 0.250446 0.78616 0.7581
942 2 0.0875627 0.742901 0.757985
347 1 0.361979 0.815734 0.721936
318 1 0.310884 0.964032 0.73607
396 1 0.503245 0.70812 0.721864
339 1 0.563876 0.849026 0.728031
897 2 0.660126 0.754387 0.746262
886 2 0.664885 0.76695 0.697898
330 1 0.884719 0.848266 0.733861
892 2 0.958557 0.676837 0.72463
411 1 0.0101842 0.877618 0.758255
921 2 0.127618 0.111075 0.782426
895 2 0.0188665 0.257268 0.799723
425 1 0.13832 0.0276482 0.822957
407 1 0.319782 0.162876 0.804142
373 1 0.461974 0.116643 0.775733
363 1 0.25405 0.0182525 0.782186
429 1 0.413457 0.306718 0.779798
462 1 0.518591 0.00837858 0.810702
408 1 0.276699 0.221945 0.768878
307 1 0.630439 0.9368 0.767915
449 1 0.608652 0.10702 0.763674
385 1 0.764447 0.0662418 0.779584
884 2 0.704497 0.0149474 0.817653
481 1 0.631671 0.119514 0.799939
882 2 0.85285 0.971383 0.756883
830 2 0.997444 0.169463 0.748283
356 1 0.904871 0.137721 0.782781
421 1 0.857892 0.999108 0.824757
413 1 0.861547 0.463292 0.806846
441 1 0.149621 0.330574 0.794232
893 2 0.995514 0.413791 0.78493
916 2 0.00722076 0.36532 0.826859
984 2 0.302994 0.311066 0.821284
312 1 0.377049 0.286611 0.735672
378 1 0.34292 0.460133 0.781658
380 1 0.62091 0.275246 0.774917
417 1 0.585809 0.422235 0.842109
460 1 0.768452 0.230402 0.769151
329 1 0.758288 0.475422 0.763963
912 2 0.211064 0.680782 0.828854
972 2 0.00859521 0.625868 0.778497
393 1 0.836392 0.602819 0.788074
833 2 0.502083 0.726766 0.763881
877 2 0.338491 0.691301 0.796567
841 2 0.274061 0.552776 0.809896
857 2 0.396627 0.422471 0.818316
910 2 0.434955 0.563166 0.761351
405 1 0.479998 0.44607 0.789138
381 1 0.686983 0.608447 0.808041
404 1 0.783263 0.738199 0.789764
933 2 0.721062 0.479331 0.830288
414 1 0.731764 0.611698 0.75634
351 1 0.951926 0.732798 0.799452
856 2 0.83476 0.677232 0.822988
344 1 0.138757 0.760048 0.795925
352 1 0.139578 0.00436752 0.754084
22 1 0.263193 0.841543 0.825767
412 1 0.361825 0.973915 0.806183
924 2 0.42291 0.904323 0.76145
941 2 0.306356 0.85239 0.789085
383 1 0.453206 0.821879 0.806304
354 1 0.753752 0.88006 0.804119
400 1 0.63977 0.774078 0.785542
925 2 0.608912 0.886521 0.814735
382 1 0.761933 0.862692 0.764221
920 2 0.658257 0.75127 0.827185
899 2 0.00504996 0.0133831 0.781874
392 1 0.908311 0.890231 0.783409
457 1 0.136338 0.172442 0.820522
956 2 0.208271 0.148823 0.863484
483 1 0.988459 0.0312463 0.84321
968 2 0.0394688 0.187117 0.852011
934 2 0.190632 0.284586 0.850762
928 2 0.341062 0.169514 0.842516
954 2 0.281462 0.027504 0.835367
786 2 0.475015 0.198415 0.812658
452 1 0.328701 0.139311 0.886447
336 1 0.48715 0.15285 0.85188
369 1 0.756224 0.902173 0.844279
868 2 0.611242 0.204706 0.82982
938 2 0.775149 0.126923 0.852711
497 1 0.959734 0.129563 0.81754
976 2 0.89696 0.209422 0.847407
953 2 0.826863 0.244493 0.88246
922 2 0.855615 0.96205 0.875009
476 1 0.131155 0.36281 0.87743
426 1 0.134212 0.53647 0.848315
388 1 0.178328 0.411076 0.825818
418 1 0.244223 0.448768 0.888516
434 1 0.577844 0.331053 0.812009
501 2 0.305831 0.392636 0.853407
32 1 0.5192 0.487658 0.866674
806 2 0.784244 0.139477 0.814207
883 2 0.491955 0.528867 0.829322
949 2 0.458302 0.327746 0.852233
876 2 0.722654 0.319728 0.825327
964 2 0.876263 0.304528 0.816316
435 1 0.854958 0.370395 0.852797
955 2 0.783978 0.480901 0.868461
431 1 0.0107121 0.442809 0.855931
371 1 0.159345 0.582093 0.891344
905 2 0.0780905 0.518776 0.806381
402 1 0.924385 0.578712 0.883479
470 1 0.00351427 0.745492 0.88463
915 2 0.502014 0.657701 0.807228
440 1 0.567051 0.720285 0.879131
932 2 0.334682 0.564889 0.847217
878 2 0.281665 0.687871 0.867677
913 2 0.452497 0.629845 0.863361
919 2 0.615168 0.58924 0.849029
975 2 0.649976 0.570774 0.883028
966 2 0.919689 0.566693 0.838131
944 2 0.0380658 0.680918 0.830532
395 1 0.78984 0.64776 0.859986
461 1 0.96897 0.881593 0.857328
890 2 0.149369 0.758168 0.856206
453 1 0.110557 0.910267 0.847599
894 2 0.375917 0.717547 0.832674
940 2 0.422253 0.803791 0.874291
401 1 0.370363 0.901487 0.846754
866 2 0.279521 0.990763 0.876258
445 1 0.570455 0.887334 0.865814
937 2 0.45664 0.0108647 0.873382
887 2 0.601485 0.0525231 0.854954
917 2 0.512883 0.75086 0.841624
415 1 0.871595 0.767634 0.863934
406 1 0.160788 0.905956 0.798903
394 1 0.885888 0.833276 0.822963
911 2 0.0171836 0.920793 0.810818
428 1 0.0782096 0.0430752 0.877633
929 2 0.0140198 0.313121 0.958024
451 1 0.0771486 0.156641 0.905911
996 2 0.977842 0.312705 0.871102
403 1 0.276963 0.278468 0.892548
463 1 0.459428 0.252199 0.885254
970 2 0.196529 0.0889703 0.904163
474 1 0.425559 0.211674 0.926374
923 2 0.362559 0.00175868 0.90749
444 1 0.323161 0.917441 0.953688
399 1 0.549747 0.088131 0.89582
484 1 0.712783 0.174117 0.935864
450 1 0.629357 0.221291 0.868138
904 2 0.701467 0.143274 0.896559
950 2 0.57136 0.243467 0.911073
30 1 0.9251 0.0977107 0.880732
427 1 0.85219 0.123736 0.913086
437 1 0.969535 0.170772 0.934678
906 2 0.0391828 0.459638 0.897096
419 1 0.13131 0.279041 0.924876
995 2 0.264354 0.188851 0.93444