ITEM: TIMESTEP
5690
ITEM: NUMBER OF ATOMS
1000
ITEM: BOX BOUNDS pp pp pp
0.0000000000000000e+00 6.2996052494743662e+00
0.0000000000000000e+00 6.2996052494743662e+00
0.0000000000000000e+00 2.5198420997897465e+01
ITEM: ATOMS id type xs ys zs
11 1 0.165908 0.0610663 0.0373276
957 2 0.257176 0.173517 0.0193319
7 1 0.19192 0.187573 0.0604361
512 2 0.541801 0.169086 0.0554312
12 1 0.534856 0.0181254 0.0600581
489 1 0.473322 0.177872 0.0197902
482 1 0.401128 0.050692 0.0373406
58 1 0.693576 0.0459532 0.0493122
983 2 0.90862 0.174406 0.94856
980 2 0.612748 0.234 0.0213778
522 2 0.519832 0.00347544 0.997929
529 2 0.758457 0.19723 0.0435874
80 1 0.0208247 0.119781 0.0583285
487 1 0.93365 0.247997 0.0182476
1000 2 0.926214 0.161203 0.989455
51 1 0.202091 0.31179 0.0129293
977 2 0.0646352 0.277003 0.991766
40 1 0.114958 0.470247 0.073961
985 2 0.0546964 0.263916 0.0428678
511 2 0.107983 0.43623 0.0129552
545 2 0.255107 0.497955 0.0169378
510 2 0.415644 0.325261 0.0404365
43 1 0.471721 0.503284 0.0105086
538 2 0.4813 0.296577 0.0886448
508 2 0.694699 0.354895 0.034462
33 1 0.555539 0.421283 0.041468
49 1 0.45628 0.48407 0.062526
490 1 0.67923 0.433761 0.977949
485 1 0.884126 0.336166 0.0420678
521 2 0.7968 0.273154 -0.00121181
6 1 0.79528 0.455354 0.0182537
981 2 0.0131954 0.423746 0.0414456
70 1 0.0891838 0.563456 0.042546
507 2 0.954957 0.625912 0.0362414
21 1 0.230546 0.691262 0.054043
18 1 0.382061 0.571504 0.0405785
4 1 0.500556 0.642755 0.989476
516 2 0.586893 0.610728 0.0337857
514 2 0.655279 0.477004 0.0118954
24 1 0.66378 0.732975 0.999985
524 2 0.732596 0.573782 0.0447964
45 1 0.889016 0.766968 0.00460407
477 1 0.0629347 0.983643 0.0122303
544 2 0.90981 0.931577 0.984986
1 1 0.15373 0.858846 0.0481259
951 2 0.270817 0.966715 0.0469472
525 2 0.364463 0.752167 0.0504975
8 1 0.478055 0.863295 0.0379921
997 2 0.287779 0.844502 0.0166909
982 2 0.233182 1.00147 0.00365166
3 1 0.455589 0.683941 0.0261219
504 2 0.601916 0.920635 0.0223967
9 1 0.632389 0.785714 0.0399777
75 1 0.773011 0.934578 0.00835495
505 2 0.775241 0.804644 0.979957
574 2 0.756809 0.119834 0.0131516
530 2 0.122023 0.0133797 0.070632
532 2 0.158132 0.315901 0.0887853
35 1 0.104532 0.152555 0.0920028
555 2 0.241666 0.16039 0.117164
13 1 0.261385 0.0573954 0.0926191
63 1 0.351396 0.198878 0.0582088
28 1 0.527341 0.969984 0.11181
506 2 0.784984 0.313849 0.0747912
526 2 0.672178 0.205811 0.0761841
527 2 0.644814 0.314789 0.106639
573 2 0.815252 0.111666 0.0807079
528 2 0.90091 0.21007 0.0600227
34 1 0.930766 0.0474116 0.0997199
533 2 0.912448 0.220714 0.0993625
534 2 0.906683 0.0544047 0.0278633
89 1 0.0693576 0.410208 0.107932
598 2 0.107247 0.264396 0.123774
61 1 0.215419 0.352213 0.0515809
517 2 0.348802 0.355917 0.0748606
86 1 0.250114 0.513331 0.0617265
38 1 0.358885 0.566123 0.125785
558 2 0.621871 0.347206 0.0693079
14 1 0.878371 0.482813 0.0949314
15 1 0.921732 0.525167 0.0631351
559 2 0.789321 0.623237 0.0909301
509 2 0.979713 0.33673 0.0784184
564 2 0.264014 0.664508 0.103822
100 1 0.0534664 0.760623 0.0566079
540 2 0.15763 0.758689 0.0863678
10 1 0.0274313 0.60712 0.0767804
560 2 0.145366 0.831761 0.119361
42 1 0.34519 0.543732 0.0872985
550 2 0.464712 0.642013 0.0650161
519 2 0.695881 0.482453 0.0996289
23 1 0.575365 0.728211 0.0975012
50 1 0.763694 0.46466 0.0642729
523 2 0.636886 0.607832 0.0747755
64 1 0.970622 0.550782 0.118258
549 2 0.746611 0.74786 0.0699276
39 1 0.0539669 0.699045 0.111593
565 2 0.891266 0.702555 0.0671518
5 1 0.954722 0.891922 0.02266
26 1 0.0503649 0.994887 0.116758
502 2 0.287269 0.844707 0.0726661
55 1 0.924782 0.933962 0.135681
69 1 0.0125147 0.854573 0.0954961
542 2 0.413761 0.696375 0.105256
37 1 0.409994 0.99225 0.0757693
546 2 0.479617 0.846067 0.085044
27 1 0.638422 0.909217 0.0679022
503 2 0.651143 0.0378605 0.089182
548 2 0.673702 0.848712 0.0998515
575 2 0.785711 0.939505 0.0603956
71 1 0.956779 0.979909 0.0637264
95 1 0.843359 0.798301 0.0405641
44 1 0.785358 0.982344 0.10107
551 2 0.366835 0.190735 0.146023
36 1 0.401304 0.0460611 0.117221
52 1 0.475875 0.124965 0.087303
98 1 0.369338 0.0418439 0.1615
78 1 0.781962 0.159089 0.11336
83 1 0.659646 0.103605 0.143027
73 1 0.631414 0.160184 0.113321
59 1 0.805552 0.34308 0.109653
576 2 0.0168797 0.143832 0.132417
554 2 0.88662 0.223506 0.14562
79 1 0.811945 0.208431 0.183289
77 1 0.298611 0.338752 0.131578
65 1 0.231142 0.445254 0.112023
60 1 0.0212915 0.304695 0.157062
535 2 0.0672272 0.466986 0.143589
998 2 0.552463 0.435302 0.0926265
556 2 0.411656 0.421972 0.107409
56 1 0.359639 0.245812 0.104501
57 1 0.49612 0.0858015 0.142754
62 1 0.627055 0.385979 0.151447
562 2 0.580706 0.555625 0.148811
552 2 0.518561 0.305015 0.132329
92 1 0.695846 0.247501 0.14102
589 2 0.753251 0.482311 0.166318
553 2 0.797843 0.464261 0.130581
88 1 0.82693 0.619104 0.13439
99 1 0.932772 0.381215 0.129969
54 1 0.807018 0.350505 0.155488
94 1 0.897927 0.47721 0.157569
41 1 0.130493 0.574148 0.109371
590 2 0.214677 0.555024 0.146508
66 1 0.962563 0.643908 0.161625
595 2 0.114039 0.69454 0.14649
570 2 0.339566 0.735599 0.140546
547 2 0.503349 0.574925 0.104794
531 2 0.471177 0.457788 0.140665
91 1 0.297764 0.617204 0.175434
537 2 0.496089 0.680037 0.142539
539 2 0.765403 0.814806 0.134476
543 2 0.66094 0.659355 0.128187
90 1 0.734181 0.669572 0.163001
513 2 0.904198 0.708605 0.110595
563 2 0.852244 0.58793 0.183478
76 1 0.0788178 0.978912 0.155389
101 1 0.253846 0.00728278 0.136191
571 2 0.329079 0.900353 0.152478
566 2 0.174091 0.873407 0.152998
48 1 0.465025 0.827451 0.123392
97 1 0.31229 0.847746 0.112242
93 1 0.49157 0.940297 0.147393
572 2 0.604565 0.82645 0.14287
74 1 0.64753 0.943325 0.125492
600 2 0.825899 0.0389187 0.135089
68 1 0.800012 0.911383 0.158687
96 1 0.836635 0.8428 0.0910712
541 2 0.978374 0.789957 0.140208
125 1 0.802564 0.0680592 0.178154
588 2 0.973084 0.658491 0.200682
81 1 0.1727 0.195026 0.154947
580 2 0.119579 0.0908059 0.178685
581 2 0.289789 0.289291 0.173498
582 2 0.183489 0.378159 0.228252
601 2 0.170841 0.252802 0.195616
650 2 0.155408 0.128329 0.218737
82 1 0.310124 0.153721 0.197796
53 1 0.471518 0.144724 0.177089
602 2 0.262599 0.0292585 0.211392
108 1 0.371753 0.931315 0.1904
583 2 0.632531 0.180341 0.180622
112 1 0.680342 0.245668 0.216489
577 2 0.66769 0.990208 0.170925
578 2 0.534688 0.960928 0.195831
599 2 0.672631 0.0819802 0.206182
605 2 0.944077 0.0172471 0.169564
579 2 0.819409 0.115171 0.213855
85 1 0.195399 0.406865 0.159226
610 2 0.260612 0.426471 0.193628
585 2 0.0556667 0.356654 0.192998
128 1 0.447391 0.253367 0.206285
611 2 0.386475 0.447897 0.211129
87 1 0.458621 0.355463 0.173349
561 2 0.3327 0.434902 0.158293
557 2 0.714521 0.362216 0.186694
586 2 0.590382 0.486692 0.188359
139 1 0.601513 0.638897 0.181818
635 2 0.678187 0.437729 0.221279
639 2 0.8165 0.507967 0.238591
84 1 0.909101 0.340594 0.183048
604 2 0.972195 0.156157 0.179253
615 2 0.929007 0.474689 0.209765
609 2 0.830673 0.336792 0.21678
115 1 0.979263 0.522915 0.251929
122 1 0.152366 0.655675 0.193558
111 1 0.0803964 0.529425 0.180037
607 2 0.245002 0.51304 0.226816
141 1 0.0770495 0.526115 0.223122
121 1 0.0645942 0.842657 0.225612
116 1 0.443008 0.534413 0.18354
72 1 0.454352 0.706581 0.190353
591 2 0.334758 0.642539 0.214164
592 2 0.720992 0.56416 0.198676
67 1 0.613687 0.671846 0.222852
123 1 0.711188 0.694827 0.252364
587 2 0.851833 0.745923 0.163759
113 1 0.771531 0.725842 0.212471
594 2 0.883724 0.642402 0.238182
596 2 0.178498 0.836245 0.191616
102 1 0.227164 0.979268 0.177632
567 2 0.311924 0.764289 0.184012
597 2 0.507466 0.83596 0.171518
622 2 0.393032 0.820758 0.214379
117 1 0.233466 0.861553 0.222352
536 2 0.688116 0.791184 0.176729
593 2 0.56428 0.816173 0.210557
568 2 0.677267 0.850355 0.247942
569 2 0.942656 0.816087 0.196229
614 2 0.87903 0.80269 0.235464
120 1 0.0549055 0.845146 0.173139
105 1 0.0234254 0.97222 0.206199
150 1 0.0650333 0.215705 0.239937
626 2 0.219543 0.13942 0.258286
671 2 0.937463 0.288428 0.268857
603 2 0.475895 0.101742 0.212478
107 1 0.278157 0.247677 0.231199
627 2 0.293035 0.0663417 0.289169
647 2 0.496344 0.0605596 0.270781
134 1 0.581034 0.163523 0.242674
160 1 0.71869 0.0142502 0.246722
630 2 0.610957 0.97928 0.292596
131 1 0.677441 0.109025 0.277187
110 1 0.947266 0.081618 0.227106
104 1 0.991511 0.330455 0.228333
623 2 0.906046 0.134991 0.26991
640 2 0.761528 0.261299 0.280039
106 1 0.0862478 0.293033 0.286185
140 1 0.0571331 0.408586 0.263723
606 2 0.190692 0.303515 0.260502
137 1 0.339975 0.320709 0.258003
632 2 0.582774 0.340801 0.201941
157 1 0.420804 0.146804 0.247178
637 2 0.222003 0.443771 0.26542
638 2 0.487954 0.294645 0.245261
119 1 0.555435 0.223606 0.278845
634 2 0.53285 0.437922 0.225401
135 1 0.64864 0.318819 0.249491
109 1 0.75265 0.164679 0.248741
584 2 0.809316 0.363514 0.253883
145 1 0.970284 0.473265 0.301405
616 2 0.208519 0.662084 0.232323
636 2 0.0716436 0.5812 0.277083
613 2 0.483227 0.712736 0.231336
617 2 0.333591 0.584887 0.25569
642 2 0.228021 0.693524 0.28173
608 2 0.455994 0.560795 0.231518
665 2 0.623623 0.639911 0.297242
114 1 0.578117 0.528974 0.258826
619 2 0.680936 0.428098 0.273406
143 1 0.432479 0.616373 0.291361
146 1 0.0632826 0.674376 0.245337
618 2 0.787655 0.538581 0.272451
166 1 0.911565 0.660072 0.277193
644 2 0.786255 0.673437 0.296803
621 2 0.992853 0.977188 0.253867
172 1 0.0661577 0.0822235 0.269111
152 1 0.128945 0.978013 0.231996
672 2 0.152912 0.786601 0.252712
103 1 0.558797 0.982895 0.230448
163 1 0.327096 0.756727 0.249087
127 1 0.392482 0.983713 0.23356
147 1 0.274277 0.948902 0.256442
118 1 0.495873 0.871543 0.250179
129 1 0.54165 0.867142 0.312089
144 1 0.748828 0.920669 0.201784
624 2 0.517941 0.742868 0.276402
124 1 0.864496 0.945185 0.228566
130 1 0.801105 0.807043 0.272139
649 2 0.0209938 0.896597 0.296867
175 1 0.905284 0.991956 0.288235
151 1 0.134314 0.15171 0.297008
651 2 0.188862 0.1239 0.333852
652 2 0.952715 0.196772 0.3021
177 1 0.193342 0.991843 0.321249
133 1 0.402872 0.19596 0.286826
673 2 0.484009 0.00482296 0.320363
158 1 0.268622 0.224271 0.302497
628 2 0.643744 0.256274 0.309432
653 2 0.518486 0.134743 0.30677
655 2 0.626583 0.0609198 0.32734
165 1 0.626506 0.234758 0.352065
126 1 0.762956 0.154278 0.316072
680 2 0.880306 0.258818 0.342383
155 1 0.749623 0.942838 0.284337
675 2 0.915808 0.104619 0.332045
136 1 0.144647 0.448492 0.30139
657 2 0.148588 0.299581 0.32979
156 1 0.987683 0.329647 0.318279
187 1 0.0440872 0.437119 0.338588
132 1 0.372655 0.365487 0.294082
662 2 0.303254 0.311535 0.338449
138 1 0.531785 0.369688 0.28072
633 2 0.40443 0.437088 0.32381
169 1 0.676762 0.495121 0.317827
190 1 0.502728 0.32431 0.315505
161 1 0.815851 0.363268 0.304152
185 1 0.725536 0.349615 0.338778
656 2 0.847925 0.3981 0.35162
641 2 0.0606467 0.720553 0.293966
625 2 0.985516 0.797918 0.268334
612 2 0.310508 0.508072 0.295637
162 1 0.243827 0.648987 0.352446
167 1 0.204839 0.609329 0.311819
148 1 0.374427 0.776085 0.288465
142 1 0.422934 0.449422 0.259742
643 2 0.51909 0.503696 0.300127
170 1 0.511469 0.705042 0.314202
664 2 0.559928 0.584636 0.337379
195 1 0.709177 0.669528 0.334647
645 2 0.820114 0.51839 0.312494
661 2 0.983724 0.61538 0.316537
192 1 0.92131 0.524962 0.354133
620 2 0.894119 0.736851 0.315723
666 2 0.774654 0.553943 0.349161
667 2 0.148796 0.959159 0.285258
176 1 0.937334 0.947736 0.33202
696 2 0.129859 0.748276 0.335462
153 1 0.406985 0.941511 0.28668
168 1 0.283085 0.730335 0.325445
648 2 0.235611 0.842725 0.289965
198 1 0.434154 0.833183 0.334565
676 2 0.304466 0.891557 0.32234
154 1 0.550522 0.961429 0.350552
149 1 0.589364 0.770765 0.347788
670 2 0.662606 0.811916 0.288324
646 2 0.870538 0.867016 0.306083
171 1 0.986777 0.807134 0.337106
197 1 0.0416541 0.051207 0.313102
180 1 0.791776 0.0233565 0.336899
674 2 0.816465 0.812782 0.345731
677 2 0.0795941 0.0439006 0.358015
182 1 0.050342 0.193964 0.344715
681 2 0.029975 0.116153 0.410524
706 2 0.259058 0.0491748 0.368129
212 1 0.152347 0.180825 0.38319
183 1 0.332334 0.0477871 0.32852
208 1 0.472084 0.988948 0.398496
658 2 0.489003 0.109392 0.362223
164 1 0.652557 0.0549259 0.368609
179 1 0.621368 0.190949 0.388935
204 1 0.80038 0.0793689 0.401547
660 2 0.81765 0.243134 0.388661
654 2 0.767337 0.159985 0.35456
699 2 0.964402 0.19023 0.37781
631 2 0.236924 0.488265 0.335502
687 2 0.237583 0.33037 0.370883
710 2 0.0569453 0.342822 0.368177
188 1 0.418816 0.196807 0.331673
682 2 0.320873 0.205068 0.369373
688 2 0.37406 0.381305 0.367912
707 2 0.441045 0.204976 0.395174
679 2 0.653061 0.352019 0.384466
678 2 0.489016 0.269089 0.361157
683 2 0.504678 0.347939 0.395577
159 1 0.580694 0.406922 0.34273
659 2 0.752701 0.314628 0.425977
181 1 0.0101703 0.264589 0.410863
211 1 0.902169 0.377429 0.391606
685 2 0.0220794 0.378152 0.443025
686 2 0.148993 0.466851 0.369926
691 2 0.0594163 0.621974 0.352126
217 1 0.300087 0.510259 0.381089
222 1 0.170449 0.608535 0.400969
216 1 0.0136571 0.68957 0.392082
663 2 0.448173 0.502794 0.3634
692 2 0.375261 0.596948 0.32452
173 1 0.456342 0.678057 0.350375
213 1 0.359655 0.412678 0.407573
218 1 0.37713 0.640244 0.383593
193 1 0.523626 0.688168 0.382869
189 1 0.611609 0.493376 0.378249
669 2 0.683159 0.687648 0.37998
690 2 0.74527 0.467127 0.402223
186 1 0.88453 0.56996 0.391703
191 1 0.897197 0.668298 0.358415
199 1 0.831729 0.749917 0.398196
201 1 0.0865525 0.907285 0.337019
700 2 0.97954 0.981308 0.39084
247 1 0.0818285 0.800725 0.368159
178 1 0.383191 0.969409 0.364305
697 2 0.226271 0.856983 0.360249
223 1 0.354558 0.801895 0.374165
203 1 0.296533 0.906654 0.399508
721 2 0.25789 0.73959 0.396687
629 2 0.729722 0.861868 0.318722
698 2 0.509626 0.833255 0.375828
174 1 0.689881 0.859999 0.371615
196 1 0.929383 0.828842 0.370636
221 1 0.983317 0.833582 0.420347
205 1 0.877361 0.0694521 0.371744
236 1 0.173995 0.164922 0.429711
735 2 0.172579 0.186621 0.484459
207 1 0.325067 0.0709856 0.411974
233 1 0.417871 0.0303417 0.444869
257 1 0.287431 0.118361 0.461262
184 1 0.68937 0.172477 0.42909
704 2 0.655999 0.105522 0.462212
229 1 0.543734 0.129286 0.431094
749 2 0.741218 0.00474693 0.432805
206 1 0.909539 0.00618592 0.427054
209 1 0.902129 0.175731 0.429716
230 1 0.819483 0.14992 0.477405
705 2 0.941854 0.0596426 0.464047
235 1 0.0304792 0.191882 0.450253
237 1 0.0934508 0.420033 0.403018
232 1 0.289272 0.264807 0.407575
711 2 0.215099 0.480822 0.421324
736 2 0.161653 0.343273 0.433975
715 2 0.0280164 0.312988 0.476917
712 2 0.377288 0.500179 0.473918
238 1 0.440049 0.314807 0.435223
214 1 0.287227 0.254997 0.446277
242 1 0.324206 0.401799 0.449115
689 2 0.619598 0.40053 0.424192
684 2 0.589969 0.278684 0.446167
709 2 0.718437 0.43259 0.451734
239 1 0.620568 0.395901 0.484256
215 1 0.856414 0.489819 0.430243
210 1 0.88162 0.300359 0.4513
245 1 0.910665 0.428652 0.47147
695 2 0.227645 0.639179 0.443085
246 1 0.0778955 0.700698 0.432528
241 1 0.0683184 0.514026 0.434345
272 1 0.180582 0.487362 0.461618
741 2 0.270029 0.743654 0.481517
718 2 0.469077 0.515276 0.405568
716 2 0.366926 0.649723 0.458668
693 2 0.759973 0.638203 0.418068
713 2 0.535021 0.505285 0.449515
694 2 0.683165 0.604818 0.451205
244 1 0.596502 0.590043 0.416795
200 1 0.91601 0.65134 0.424034
240 1 0.82053 0.555015 0.465169
220 1 0.0345228 0.546907 0.386227
231 1 0.153791 0.966568 0.385285
720 2 0.143284 0.818686 0.409461
717 2 0.341369 0.569107 0.423547
202 1 0.261991 0.942645 0.440626
708 2 0.418713 0.842175 0.416235
722 2 0.269361 0.797386 0.438174
723 2 0.451834 0.697324 0.419671
748 2 0.59244 0.95995 0.445753
703 2 0.643227 0.992654 0.40284
194 1 0.738495 0.83557 0.425331
668 2 0.616602 0.829663 0.405881
224 1 0.735918 0.836594 0.46541
725 2 0.0855521 0.962974 0.419479
724 2 0.807191 0.93813 0.390693
225 1 0.853311 0.882955 0.447184
250 1 0.77392 0.992337 0.471637
727 2 0.196744 0.0466818 0.508706
731 2 0.11038 0.142023 0.531649
755 2 0.0467649 0.0656457 0.495912
278 1 0.161641 0.964489 0.538506
228 1 0.350441 0.0661427 0.498679
733 2 0.303821 0.209111 0.500647
729 2 0.42502 0.181755 0.471488
255 1 0.712577 0.9889 0.507002
259 1 0.556313 0.244256 0.482066
728 2 0.520054 0.333711 0.511512
309 1 0.589458 0.0416314 0.528739
730 2 0.858964 0.0392327 0.505665
799 2 0.959696 0.162998 0.509111
261 1 0.252343 0.34415 0.483188
265 1 0.184981 0.434825 0.509906
740 2 0.0661105 0.534491 0.490639
757 2 0.21217 0.26098 0.533094
761 2 0.0515082 0.554497 0.52768
732 2 0.346203 0.349692 0.520561
763 2 0.486576 0.49726 0.497986
234 1 0.427418 0.327517 0.47789
714 2 0.718131 0.361215 0.508833
739 2 0.721121 0.274756 0.467965
284 1 0.677779 0.36278 0.547608
734 2 0.867469 0.31413 0.495336
264 1 0.715316 0.189877 0.504847
260 1 0.968472 0.406491 0.510851
270 1 0.828753 0.423327 0.530242
266 1 0.107201 0.675068 0.468621
243 1 0.463878 0.784059 0.453723
737 2 0.538452 0.646672 0.464932
262 1 0.224952 0.600143 0.498735
248 1 0.500941 0.767611 0.488062
742 2 0.34462 0.521468 0.514211
747 2 0.389179 0.640234 0.494852
719 2 0.630362 0.747547 0.446203
219 1 0.741931 0.542997 0.52071
738 2 0.629027 0.543023 0.490785
774 2 0.669825 0.699767 0.479018
743 2 0.573337 0.652324 0.517907
744 2 0.897651 0.548862 0.503309
296 1 0.952527 0.620925 0.459936
770 2 0.00138006 0.720219 0.495567
300 1 0.867261 0.754773 0.482165
701 2 0.120238 0.940058 0.487676
746 2 0.135047 0.841487 0.451741
726 2 0.117611 0.0512967 0.458841
267 1 0.127544 0.791131 0.494213
227 1 0.251803 0.956574 0.479511
702 2 0.379779 0.917437 0.464176
254 1 0.553378 0.0299304 0.483357
772 2 0.44888 0.923193 0.497847
275 1 0.806154 0.700782 0.450098
249 1 0.586103 0.880396 0.479488
274 1 0.729143 0.819887 0.508082
745 2 0.979626 0.803885 0.463429
226 1 0.919923 0.922519 0.483195
750 2 0.892026 0.831662 0.516589
252 1 0.166979 0.0865008 0.569175
751 2 0.289895 0.094899 0.542078
283 1 0.35504 0.987041 0.562295
778 2 0.593019 0.187643 0.530188
288 1 0.495321 0.0647092 0.55679
285 1 0.755563 1.00159 0.570836
310 1 0.631178 0.113544 0.564247
308 1 0.587687 0.926533 0.556076
754 2 0.752316 0.0753514 0.540521
780 2 0.946101 0.0950595 0.544987
281 1 0.811641 0.149857 0.575614
796 2 0.918147 0.0280178 0.584672
756 2 0.210657 0.318985 0.578323
760 2 0.0823943 0.301225 0.511758
762 2 0.172845 0.40832 0.546365
291 1 0.0679159 0.362664 0.579499
263 1 0.419235 0.464073 0.543654
258 1 0.276906 0.178954 0.589691
758 2 0.377456 0.21573 0.541416
788 2 0.36678 0.37011 0.569867
269 1 0.570988 0.494352 0.527559
764 2 0.478636 0.298222 0.55462
290 1 0.768451 0.284333 0.584629
789 2 0.654678 0.400724 0.585211
268 1 0.57316 0.538247 0.574456
776 2 0.933332 0.326385 0.596706
256 1 0.0181948 0.245356 0.549901
759 2 0.847366 0.240155 0.538073
765 2 0.975769 0.389283 0.550446
790 2 0.824725 0.442609 0.569013
292 1 0.260467 0.475863 0.576858
767 2 0.150809 0.664942 0.530258
293 1 0.301597 0.623616 0.546014
298 1 0.0116869 0.659459 0.552196
287 1 0.144665 0.579721 0.56987
817 2 0.264501 0.626824 0.591978
273 1 0.245814 0.792448 0.5197
768 2 0.456007 0.615999 0.548093
792 2 0.409926 0.544911 0.588425
769 2 0.6293 0.760122 0.543
319 1 0.635468 0.670716 0.593024
294 1 0.698173 0.58988 0.557698
299 1 0.801653 0.685068 0.514578
766 2 0.0510429 0.802501 0.53901
791 2 0.98809 0.508919 0.581488
297 1 0.841428 0.737283 0.547789
295 1 0.865798 0.560553 0.542682
794 2 0.85264 0.577202 0.577927
251 1 0.00806987 0.94625 0.522421
793 2 0.191559 0.7246 0.565913
771 2 0.0412191 0.964081 0.564625
798 2 0.122954 0.879554 0.595934
822 2 0.230719 0.864602 0.561782
253 1 0.39064 0.735784 0.527144
303 1 0.440455 0.874393 0.541841
752 2 0.332357 0.958193 0.526229
753 2 0.469112 0.115592 0.51913
322 1 0.357222 0.736588 0.566858
773 2 0.518584 0.764626 0.570928
779 2 0.580402 0.86926 0.515267
325 1 0.672555 0.821038 0.578813
271 1 0.950255 0.824864 0.56557
279 1 0.739999 0.87528 0.543645
775 2 0.87215 0.955597 0.54302
800 2 0.808745 0.872776 0.586609
277 1 0.0534015 0.0112946 0.600318
327 1 0.0356962 0.920896 0.64115
302 1 0.0265428 0.166003 0.637427
282 1 0.217743 0.00865363 0.598552
783 2 0.355454 0.0533538 0.594386
808 2 0.411345 0.138234 0.638755
289 1 0.522406 0.144895 0.600988
304 1 0.468901 0.0026451 0.621937
804 2 0.71088 0.163497 0.61552
824 2 0.603699 0.996735 0.591067
849 2 0.617776 0.0514701 0.628195
280 1 0.771497 0.995291 0.609551
784 2 0.880074 0.169642 0.613121
321 1 0.00291784 0.179841 0.587194
326 1 0.914298 0.017596 0.627169
276 1 0.124605 0.230982 0.605935
331 1 0.0552409 0.43846 0.650315
312 1 0.194349 0.453897 0.640941
286 1 0.14095 0.474578 0.606399
782 2 0.2598 0.323367 0.613877
307 1 0.258436 0.164675 0.627504
317 1 0.408028 0.444792 0.624125
333 1 0.416185 0.244003 0.597545
833 2 0.362285 0.290747 0.645235
339 1 0.497705 0.360065 0.651432
809 2 0.611931 0.299048 0.614096
787 2 0.506404 0.404283 0.591116
314 1 0.61203 0.25502 0.573343
785 2 0.7519 0.320174 0.628193
306 1 0.657631 0.376359 0.652444
781 2 0.0481372 0.364989 0.618068
315 1 0.782688 0.478071 0.63909
810 2 0.913437 0.271775 0.645224
311 1 0.907675 0.447822 0.619192
840 2 0.902237 0.387741 0.672601
316 1 0.362484 0.604905 0.628911
342 1 0.104255 0.726083 0.5954
347 1 0.166189 0.614638 0.62667
323 1 0.433033 0.689303 0.598015
818 2 0.272776 0.775735 0.620374
338 1 0.51625 0.5845 0.618404
318 1 0.352825 0.60442 0.672677
343 1 0.403808 0.724838 0.650626
313 1 0.770448 0.500674 0.601085
813 2 0.657157 0.582622 0.629169
366 1 0.702367 0.720874 0.62565
814 2 0.793904 0.723029 0.588366
320 1 0.860726 0.634318 0.62084
816 2 0.921382 0.540232 0.651873
797 2 0.999263 0.570518 0.617185
777 2 0.214174 0.912447 0.626691
821 2 0.971128 0.878277 0.608844
346 1 0.976467 0.795777 0.672437
328 1 0.10858 0.787212 0.641843
819 2 0.47378 0.846431 0.616998
823 2 0.453961 0.940901 0.585549
348 1 0.330225 0.874839 0.599567
329 1 0.303198 0.0173899 0.641417
324 1 0.542992 0.723974 0.638709
349 1 0.696767 0.863284 0.61887
795 2 0.93814 0.696984 0.587801
820 2 0.871793 0.859419 0.640822
802 2 0.874689 0.105909 0.657727
332 1 0.0354931 0.059941 0.66731
851 2 0.0922221 0.15215 0.695955
352 1 0.103038 0.0432366 0.717114
803 2 0.129695 0.0625782 0.626852
334 1 0.514462 0.0382419 0.658436
335 1 0.321533 0.167988 0.666364
829 2 0.183741 0.150919 0.660419
364 1 0.260504 0.298302 0.671766
850 2 0.65207 0.0162724 0.689287
356 1 0.80108 0.220494 0.714443
355 1 0.531501 0.11007 0.695663
330 1 0.590243 0.186581 0.644781
301 1 0.679621 0.159692 0.673767
357 1 0.922481 0.213306 0.695464
846 2 0.905571 0.941736 0.674878
376 1 0.787151 0.0657032 0.703516
786 2 0.110853 0.390641 0.693953
806 2 0.987424 0.494353 0.689855
832 2 0.15031 0.298511 0.643263
807 2 0.347923 0.426306 0.663567
359 1 0.454874 0.48324 0.691246
353 1 0.37222 0.335699 0.709382
340 1 0.755449 0.448381 0.677233
834 2 0.622745 0.437255 0.620747
835 2 0.480714 0.257561 0.678477
365 1 0.611525 0.447401 0.692105
360 1 0.674005 0.290545 0.69147
826 2 0.796947 0.27139 0.669431
801 2 0.0304562 0.295032 0.670626
811 2 0.843098 0.574248 0.688507
361 1 0.755991 0.443329 0.715088
812 2 0.210073 0.536082 0.673302
862 2 0.247491 0.704971 0.657169
341 1 0.0638249 0.652959 0.659908
861 2 0.0945767 0.601587 0.698621
837 2 0.489436 0.560065 0.654927
838 2 0.273378 0.722506 0.702195
844 2 0.564064 0.606167 0.704101
368 1 0.332968 0.565965 0.708235
839 2 0.649703 0.588877 0.665804
344 1 0.694228 0.716837 0.698891
370 1 0.628843 0.50175 0.729516
815 2 0.978288 0.742021 0.630825
336 1 0.765471 0.607916 0.725801
362 1 0.93383 0.695239 0.701097
860 2 0.849164 0.705488 0.663423
865 2 0.971246 0.839709 0.710121
836 2 0.121502 0.754488 0.69471
847 2 0.26335 0.902324 0.701176
372 1 0.161138 0.965282 0.661526
841 2 0.0683871 0.931839 0.690049
842 2 0.277966 0.850726 0.665374
843 2 0.411056 0.830471 0.705487
827 2 0.371589 0.981894 0.679796
374 1 0.497886 0.859228 0.670942
873 2 0.500633 0.965992 0.721858
345 1 0.578 0.731802 0.676724
350 1 0.578594 0.910963 0.640034
845 2 0.693701 0.842355 0.663618
375 1 0.567039 0.858387 0.705835
874 2 0.541153 0.695761 0.733188
305 1 0.736489 0.987662 0.655818
825 2 0.77347 0.894776 0.69187
875 2 0.701119 0.949556 0.721805
852 2 0.129024 0.216061 0.728544
377 1 0.266114 0.0907522 0.731182
358 1 0.275445 0.219615 0.708211
354 1 0.384281 0.101624 0.703846
882 2 0.471625 0.256649 0.749163
855 2 0.675235 0.125048 0.728229
380 1 0.525294 0.00256752 0.756175
853 2 0.631031 0.0979013 0.762307
909 2 0.45916 0.113314 0.738308
830 2 0.877463 0.0571437 0.736614
871 2 0.948038 0.0741653 0.698508
876 2 0.925778 0.192857 0.735325
881 2 0.234852 0.347844 0.727074
381 1 0.143923 0.359349 0.755009
363 1 0.226558 0.507397 0.757055
805 2 0.0255465 0.394835 0.728371
858 2 0.0533608 0.554679 0.741903
389 1 0.473178 0.424056 0.766645
863 2 0.334317 0.452763 0.740512
864 2 0.491966 0.384124 0.725585
857 2 0.319606 0.343099 0.764691
854 2 0.354698 0.188686 0.767166
385 1 0.78302 0.162759 0.755986
859 2 0.580559 0.251507 0.721623
390 1 0.697585 0.332514 0.736354
351 1 0.884474 0.35861 0.714787
384 1 0.836098 0.390275 0.75268
831 2 0.177754 0.481807 0.719372
387 1 0.0181023 0.717472 0.737044
828 2 0.446224 0.545313 0.738808
369 1 0.376916 0.531126 0.777697
848 2 0.198582 0.626727 0.725343
898 2 0.361065 0.702913 0.776094
889 2 0.689431 0.472531 0.763994
337 1 0.688454 0.740327 0.737639
868 2 0.594391 0.722453 0.767788
391 1 0.745058 0.665741 0.777958
386 1 0.907664 0.552479 0.723874
890 2 0.869823 0.535633 0.757945
895 2 0.891939 0.683521 0.761824
886 2 0.139295 0.810194 0.730263
867 2 0.268202 0.77848 0.756426
872 2 0.212747 0.0618054 0.687243
367 1 0.0231228 0.941131 0.734177
397 1 0.140659 0.980015 0.75293
373 1 0.365021 0.681439 0.738961
379 1 0.468573 0.814355 0.743754
423 1 0.365821 0.91183 0.737528
430 1 0.362823 0.857669 0.777242
869 2 0.618102 0.889096 0.747184
396 1 0.728459 0.826257 0.768773
425 1 0.600627 0.966135 0.798867
879 2 0.739817 0.994262 0.758841
870 2 0.854903 0.763694 0.727294
371 1 0.850546 0.923142 0.727287
422 1 0.949063 0.850031 0.755655
900 2 0.0844517 0.0993361 0.774032
880 2 0.0210017 0.138847 0.811771
407 1 0.194323 0.212037 0.767253
877 2 0.181776 0.0214506 0.820681
382 1 0.315118 0.0177512 0.761906
883 2 0.480813 0.089 0.816552
413 1 0.311607 0.105381 0.800218
378 1 0.437395 0.99345 0.790117
878 2 0.351807 0.985816 0.841956
924 2 0.638953 0.115643 0.805298
388 1 0.529215 0.191674 0.777863
904 2 0.764843 0.220045 0.804397
949 2 0.546556 0.991984 0.838582
405 1 0.905967 0.135671 0.776249
920 2 0.791637 0.0731919 0.799617
401 1 0.904217 0.0809641 0.826775
411 1 0.101336 0.311224 0.798674
416 1 0.966165 0.435582 0.768845
393 1 0.251051 0.458243 0.799038
934 2 0.422111 0.248672 0.83095
412 1 0.305836 0.270503 0.798577
892 2 0.440543 0.310575 0.793297
443 1 0.383984 0.438745 0.833008
414 1 0.590418 0.337208 0.76541
410 1 0.727335 0.30649 0.776176
440 1 0.551073 0.302405 0.852802
887 2 0.496589 0.494184 0.800006
964 2 0.575784 0.249184 0.812215
435 1 0.0300216 0.264301 0.761201
856 2 0.839597 0.524362 0.794607
884 2 0.615861 0.396172 0.800539
915 2 0.887417 0.47561 0.853994
930 2 0.880355 0.293989 0.783482
885 2 0.0100041 0.622585 0.785175
406 1 0.978323 0.480521 0.805076
891 2 0.156592 0.676583 0.762692
473 1 0.0893353 0.818344 0.766609
392 1 0.123744 0.634895 0.838259
910 2 0.0491472 0.760154 0.807269
400 1 0.565116 0.582319 0.77
866 2 0.230416 0.625041 0.791878
893 2 0.370018 0.6134 0.818714
449 1 0.340706 0.763122 0.815272
919 2 0.500959 0.724312 0.814764
394 1 0.689218 0.545341 0.805772
415 1 0.749994 0.698637 0.822936
395 1 0.819308 0.584119 0.839758
911 2 0.925555 0.726618 0.842666
383 1 0.256999 0.931603 0.799315
922 2 0.0292518 0.984898 0.832242
398 1 0.0236867 0.937728 0.793496
897 2 0.137962 0.839596 0.841332
424 1 0.181151 0.797788 0.798142
403 1 0.304018 0.82978 0.84823
404 1 0.517259 0.849936 0.780958
923 2 0.456202 0.890812 0.81815
399 1 0.650354 0.790625 0.801307
899 2 0.773582 0.908818 0.805378
444 1 0.685852 0.92793 0.832493
428 1 0.965242 0.862078 0.84737
420 1 0.892886 0.762444 0.794185
896 2 0.888795 0.954368 0.783169
450 1 0.741702 0.0830325 0.847728
402 1 0.965305 0.155985 0.860851
426 1 0.128093 0.311674 0.842259
908 2 0.106548 0.166869 0.840692
409 1 0.279668 0.11991 0.844451
427 1 0.246126 0.120161 0.885606
434 1 0.431523 0.115156 0.854993
453 1 0.136227 0.0388118 0.903983
901 2 0.227365 0.251897 0.870309
429 1 0.73209 0.320585 0.856525
446 1 0.417412 0.018953 0.891226
941 2 0.601345 0.157968 0.853053
975 2 0.738346 0.156693 0.909787
417 1 0.909384 0.240628 0.826588
931 2 0.823783 0.171444 0.872775
950 2 0.815974 0.00434317 0.901033
937 2 0.1819 0.176876 0.804931
441 1 0.264356 0.41298 0.866443
408 1 0.117743 0.47435 0.819708
438 1 0.298466 0.33537 0.901047
418 1 0.288744 0.311057 0.831863
894 2 0.38533 0.520151 0.874188
913 2 0.410534 0.30389 0.871961
888 2 0.661145 0.241964 0.886909
460 1 0.914857 0.303527 0.86111
912 2 0.00382746 0.36906 0.833178
436 1 0.0455971 0.426788 0.86904
935 2 0.817706 0.358975 0.817874
469 1 0.773307 0.477075 0.883229
499 1 0.0828838 0.741022 0.86738
497 1 0.17584 0.528182 0.873927
940 2 0.268082 0.533033 0.839198
917 2 0.229453 0.697129 0.855025
942 2 0.36938 0.682311 0.874837
939 2 0.494171 0.535433 0.842594
938 2 0.538449 0.637861 0.865352
445 1 0.666239 0.42527 0.833923
458 1 0.604389 0.463139 0.868444
965 2 0.689777 0.588748 0.908455
944 2 0.987932 0.576058 0.835548
946 2 0.697099 0.619359 0.867422
472 1 0.781956 0.763986 0.85447
431 1 0.184154 0.012051 0.855801
926 2 0.11989 0.857576 0.918606
902 2 0.232544 0.736807 0.894181
452 1 0.963457 0.738591 0.899727
948 2 0.201212 0.909121 0.882087
914 2 0.629645 0.627386 0.833989
925 2 0.542311 0.855632 0.870703
943 2 0.448047 0.781453 0.844487
471 1 0.640959 0.748785 0.881582
995 2 0.565348 0.0264843 0.879306
921 2 0.0532212 0.879406 0.884698
421 1 0.841086 0.969589 0.852391
916 2 0.971911 0.993085 0.871307
447 1 0.0465675 0.250425 0.88636
457 1 0.0316615 0.148022 0.92527
907 2 0.174514 0.160744 0.941114
996 2 0.150943 0.992218 0.94153
903 2 0.41079 0.0666647 0.930452
433 1 0.283381 0.196076 0.920927
984 2 0.495182 0.278929 0.911777
496 1 0.495803 0.18676 0.942891
974 2 0.562347 0.126685 0.908671
928 2 0.399742 0.170117 0.897296
459 1 0.644402 0.227259 0.934061
905 2 0.920953 0.108761 0.897207