ITEM: TIMESTEP
18190
ITEM: NUMBER OF ATOMS
1000
ITEM: BOX BOUNDS pp pp pp
0.0000000000000000e+00 6.2996052494743662e+00
0.0000000000000000e+00 6.2996052494743662e+00
0.0000000000000000e+00 2.5198420997897465e+01
ITEM: ATOMS id type xs ys zs
51 1 0.13901 0.144319 0.0601421
512 2 0.233336 0.105475 0.0205574
471 1 0.0553883 0.264449 0.0363289
967 2 0.0235332 0.0472328 0.0540574
959 2 0.0762339 0.117848 0.0216106
526 2 0.367424 0.0240351 0.0105894
34 1 0.348219 0.204123 0.025111
560 2 0.267487 0.0163002 0.0525524
17 1 0.396126 0.200297 0.0618243
507 2 0.555704 0.0706816 0.0464676
27 1 0.633997 0.211966 0.0326858
4 1 0.700807 0.0595672 0.990663
24 1 0.659814 0.208855 0.989424
518 2 0.754995 0.0443641 0.0259469
918 2 0.865716 0.199716 0.0428541
488 1 0.928205 0.118182 0.0145667
498 1 0.862044 0.0435482 0.0544068
482 1 0.158192 0.385638 0.0452572
92 1 0.216433 0.252866 0.0394968
48 1 0.243286 0.525872 0.0402221
994 2 0.0145293 0.435723 0.0259578
511 2 0.361037 0.360869 0.993793
527 2 0.462963 0.337196 0.0337606
63 1 0.407511 0.482086 0.0277405
52 1 0.315271 0.376568 0.0460259
477 1 0.585822 0.433675 0.0458827
977 2 0.727724 0.324945 0.037897
503 2 0.585053 0.344419 0.0121204
79 1 0.518442 0.479372 0.00302691
73 1 0.833048 0.484615 0.00882281
529 2 0.832006 0.479328 0.0548253
16 1 0.879393 0.366582 0.0289825
496 1 0.773044 0.312907 0.00082695
454 1 0.124875 0.555948 0.00282284
139 1 0.040313 0.706726 0.0238149
85 1 0.105248 0.592009 0.0426284
9 1 0.22838 0.70822 0.0548919
514 2 0.361669 0.624194 0.0506914
478 1 0.267199 0.650348 0.0191818
15 1 0.471851 0.555512 0.0683221
520 2 0.699 0.508962 0.027737
33 1 0.536995 0.617107 0.0249506
6 1 0.608483 0.635586 0.0589726
487 1 0.914053 0.582694 0.0402911
987 2 0.907368 0.742052 0.032582
49 1 0.777291 0.616898 0.0559795
508 2 0.787323 0.635283 0.0152406
951 2 0.148057 0.92808 0.0545722
70 1 0.179442 0.830324 0.0271435
979 2 0.153394 0.97735 0.0129402
20 1 0.0628984 0.846988 0.995272
23 1 0.428219 0.750349 0.0184111
555 2 0.350877 0.867229 0.0400387
947 2 0.591294 0.765547 0.0124934
36 1 0.664546 0.935113 0.0134032
516 2 0.500124 0.925974 0.0291936
37 1 0.861489 0.949744 0.0195519
61 1 0.742143 0.77309 0.0284888
597 2 0.0239697 0.881664 0.0297555
581 2 0.133224 0.150007 0.0978175
577 2 0.0193241 0.0862353 0.108083
559 2 0.0430277 0.286572 0.106584
548 2 0.422529 0.999248 0.0584689
513 2 0.342943 0.0814993 0.0815942
468 1 0.471192 0.0182942 0.106251
982 2 0.560988 0.138493 0.0992519
59 1 0.622046 0.99305 0.116155
525 2 0.703465 0.0164099 0.062156
554 2 0.67133 0.198956 0.0754892
566 2 0.720657 0.115648 0.119895
528 2 0.839568 0.149558 0.0833948
41 1 0.984748 0.197865 0.074693
510 2 -0.00022357 0.34373 0.0627359
546 2 0.146247 0.29096 0.0759844
65 1 0.0206238 0.504621 0.0652815
575 2 0.0430497 0.462 0.102278
57 1 0.219551 0.414521 0.105411
558 2 0.428982 0.239975 0.106659
552 2 0.45649 0.400197 0.0726358
89 1 0.294667 0.335096 0.0798302
62 1 0.356149 0.446698 0.104524
565 2 0.709319 0.357946 0.0773883
561 2 0.537014 0.244179 0.0638144
56 1 0.59331 0.46062 0.112927
576 2 0.647274 0.28169 0.11073
71 1 0.84654 0.316497 0.0687983
485 1 0.904135 0.401881 0.0962516
532 2 0.067327 0.748112 0.0579514
7 1 0.197344 0.726097 0.0980852
594 2 0.0390869 0.634577 0.0877802
985 2 0.109781 0.552832 0.124373
28 1 0.173875 0.566558 0.0793735
533 2 0.461526 0.605405 0.10512
538 2 0.333486 0.665005 0.0843991
537 2 0.485919 0.732914 0.0588005
521 2 0.662637 0.492812 0.0725336
545 2 0.61921 0.62579 0.0976468
86 1 0.772331 0.661683 0.105615
35 1 0.902959 0.56733 0.0821055
40 1 0.916259 0.725247 0.0729771
542 2 0.274419 0.842604 0.0735661
98 1 0.158323 0.881378 0.115351
53 1 0.212913 0.0228172 0.0961145
44 1 0.080045 0.952297 0.0882594
10 1 0.0262142 0.807563 0.0955598
38 1 0.337812 0.926049 0.107143
547 2 0.537428 0.776059 0.0968551
509 2 0.468275 0.881946 0.0766075
95 1 0.593242 0.858441 0.0526319
45 1 0.588517 0.977079 0.0793718
524 2 0.678426 0.750854 0.077823
21 1 0.667485 0.84236 0.112672
541 2 0.911286 0.0192222 0.0931369
534 2 0.754352 0.868265 0.0613956
39 1 0.9038 0.898721 0.0640508
550 2 0.807457 0.867758 0.0970751
599 2 0.205616 0.0887157 0.137885
539 2 0.996222 0.181036 0.143166
120 1 0.117321 0.119851 0.172894
543 2 0.269865 0.188603 0.166122
587 2 0.391887 0.113593 0.127937
671 2 0.413884 0.0977406 0.165538
99 1 0.545064 0.110233 0.139438
60 1 0.708161 0.162207 0.153484
54 1 0.96575 0.0703057 0.171225
486 1 0.876095 0.114996 0.121813
530 2 0.83954 0.144097 0.171584
589 2 0.19944 0.300446 0.135385
638 2 0.0208399 0.371557 0.140569
82 1 0.183987 0.449617 0.138349
76 1 0.132927 0.285086 0.174552
105 1 0.412161 0.245792 0.147228
595 2 0.285326 0.209412 0.106501
50 1 0.483476 0.352174 0.126177
556 2 0.433967 0.401157 0.161885
590 2 0.741751 0.379293 0.144626
557 2 0.581161 0.252315 0.147346
64 1 0.59801 0.435055 0.163403
42 1 0.804962 0.293671 0.113895
93 1 0.875942 0.437433 0.133806
109 1 0.852526 0.275355 0.153982
1 1 0.0253752 0.381292 0.177781
544 2 0.0827185 0.519858 0.166635
125 1 0.209015 0.605117 0.153589
107 1 0.0644599 0.696268 0.122455
11 1 0.172973 0.774181 0.141491
78 1 0.261187 0.637636 0.120612
519 2 0.43892 0.511971 0.137606
116 1 0.428084 0.676711 0.137354
593 2 0.333168 0.701994 0.170207
998 2 0.592837 0.559894 0.144355
604 2 0.7248 0.691045 0.14402
502 2 0.532542 0.680808 0.175732
77 1 0.919939 0.579486 0.130866
981 2 0.74705 0.494289 0.112701
636 2 0.919523 0.558317 0.169289
80 1 0.740522 0.542251 0.153492
83 1 0.853999 0.708549 0.167016
104 1 0.902889 0.726927 0.116334
963 2 0.0650341 0.983667 0.139804
141 1 0.987691 0.762608 0.155827
97 1 0.109211 0.85467 0.167676
551 2 0.345337 0.789627 0.12058
72 1 0.309462 0.922018 0.146159
570 2 0.438987 0.818857 0.171062
117 1 0.632302 0.978372 0.160063
598 2 0.564117 0.772801 0.139844
14 1 0.722902 0.85887 0.153715
971 2 0.523278 0.916722 0.138043
540 2 0.606638 0.829267 0.175492
118 1 0.778084 0.980973 0.132567
88 1 0.929592 0.896473 0.120593
517 2 0.895839 0.885363 0.159311
112 1 0.231455 0.132398 0.199527
569 2 0.97352 0.240498 0.176516
603 2 0.166969 0.119836 0.237405
127 1 0.0453999 0.104752 0.215366
101 1 0.411017 0.228957 0.188206
607 2 0.391974 0.0839921 0.210978
90 1 0.590551 0.13138 0.180014
626 2 0.54275 0.0661382 0.215462
161 1 0.695106 0.0476545 0.202254
583 2 0.85032 0.136151 0.20686
102 1 0.816923 0.00161226 0.17437
580 2 0.0321419 0.21263 0.243314
957 2 0.102387 0.361308 0.210778
585 2 0.24069 0.491931 0.187426
611 2 0.258579 0.301112 0.207085
608 2 0.211723 0.424673 0.234553
535 2 0.292264 0.347236 0.168994
609 2 0.395788 0.417537 0.200662
653 2 0.490474 0.192964 0.234556
100 1 0.67356 0.388491 0.199843
670 2 0.54127 0.322805 0.182257
592 2 0.62211 0.24746 0.208759
157 1 0.754479 0.2629 0.187043
84 1 0.554549 0.394639 0.224749
26 1 0.909635 0.279081 0.206445
567 2 0.955007 0.442861 0.213243
621 2 0.807165 0.379894 0.222166
564 2 0.845898 0.414922 0.181742
87 1 0.0945258 0.522084 0.206082
144 1 0.105665 0.693726 0.171706
606 2 0.239476 0.636087 0.207377
121 1 0.14723 0.583548 0.237028
647 2 0.499059 0.516979 0.193992
91 1 0.386924 0.559776 0.172768
665 2 0.424277 0.669714 0.206928
651 2 0.324422 0.528209 0.224164
115 1 0.488687 0.753519 0.239406
150 1 0.675406 0.545198 0.187051
619 2 0.57807 0.638455 0.217362
113 1 0.688354 0.698399 0.180677
55 1 0.655686 0.500422 0.228737
169 1 0.992343 0.636019 0.194132
642 2 0.853427 0.56101 0.207076
632 2 0.72277 0.651756 0.215278
74 1 0.189203 0.981661 0.179266
122 1 0.0449444 0.964841 0.197387
616 2 0.113254 0.80693 0.208951
613 2 0.0901341 0.966918 0.232819
68 1 0.342635 0.955225 0.180574
591 2 0.269745 0.761548 0.231616
562 2 0.273687 0.979071 0.214093
66 1 0.252447 0.81898 0.172408
149 1 0.395074 0.833801 0.20807
536 2 0.436056 0.946638 0.234103
586 2 0.514428 0.977013 0.185437
531 2 0.709912 0.799816 0.224929
131 1 0.569317 0.838482 0.213025
605 2 0.628606 0.974652 0.235123
553 2 0.957812 0.817919 0.192232
108 1 0.776077 0.845646 0.187367
578 2 0.900089 0.978494 0.216688
628 2 0.956698 0.0655661 0.249795
615 2 0.761099 0.942381 0.223683
596 2 0.861345 0.746152 0.212218
111 1 0.000347243 0.853506 0.233085
667 2 0.0819484 0.174505 0.276491
140 1 0.26316 0.13821 0.263707
176 1 0.0335053 0.00359132 0.281221
572 2 0.343156 0.222721 0.232578
579 2 0.312775 0.989222 0.256918
151 1 0.398669 0.0829427 0.279592
110 1 0.653425 0.14511 0.244498
623 2 0.515452 0.188511 0.282228
183 1 0.529623 0.0255371 0.257733
601 2 0.926942 0.145535 0.286152
630 2 0.773194 0.0574564 0.251773
123 1 0.925788 0.302165 0.278364
719 2 0.791503 0.0221902 0.289728
699 2 0.763318 0.190797 0.271482
582 2 0.0702317 0.385443 0.247624
610 2 0.177064 0.263377 0.243265
649 2 0.0917203 0.329865 0.284556
166 1 0.227177 0.384831 0.271114
640 2 0.36615 0.275505 0.272285
164 1 0.350235 0.372923 0.238711
129 1 0.659147 0.309516 0.245547
612 2 0.522243 0.402593 0.295739
627 2 0.526484 0.326315 0.261009
691 2 0.657043 0.465725 0.275959
135 1 0.852784 0.240261 0.243654
130 1 0.914337 0.403567 0.252617
160 1 0.767766 0.351032 0.273137
664 2 1.0013 0.46996 0.288891
634 2 0.267093 0.527703 0.266376
145 1 0.112444 0.575264 0.27223
247 1 0.0218048 0.681977 0.228916
142 1 0.20968 0.697717 0.261137
672 2 0.384473 0.629893 0.258259
635 2 0.480124 0.537485 0.234661
148 1 0.438469 0.481728 0.265288
624 2 0.307328 0.639214 0.296234
103 1 0.456037 0.709644 0.285834
637 2 0.715753 0.637784 0.294663
617 2 0.563071 0.607638 0.265177
155 1 0.698135 0.68211 0.252221
622 2 0.795986 0.503098 0.248323
675 2 0.965623 0.640267 0.275576
568 2 0.984538 0.530441 0.247552
152 1 0.876473 0.653753 0.247916
563 2 0.0376384 0.821736 0.268548
128 1 0.172377 0.9036 0.264636
134 1 0.373041 0.820107 0.260466
201 1 0.442838 0.931953 0.289851
658 2 0.274499 0.791313 0.285864
69 1 0.547506 0.8539 0.264218
147 1 0.656032 0.968758 0.280998
655 2 0.661632 0.773621 0.287724
231 1 0.931727 0.811208 0.296144
94 1 0.919366 0.925318 0.263072
648 2 0.829267 0.789106 0.258017
652 2 0.00636609 0.105562 0.318488
690 2 0.152151 0.0489164 0.343887
185 1 0.157481 0.0946482 0.301478
618 2 0.223943 0.250937 0.295674
602 2 0.306482 0.127176 0.310443
686 2 0.434534 0.157243 0.326168
687 2 0.254658 0.268794 0.343748
679 2 0.637641 0.0915386 0.298209
238 1 0.508819 0.0336677 0.313431
202 1 0.685239 0.176603 0.326795
172 1 0.846677 0.135921 0.319425
211 1 0.939393 0.151972 0.352825
639 2 0.0545713 0.440518 0.35306
137 1 0.20862 0.498372 0.304103
620 2 0.218738 0.452291 0.343827
106 1 0.173661 0.36427 0.318471
119 1 0.355674 0.395662 0.292746
138 1 0.4469 0.281006 0.304185
126 1 0.482744 0.442681 0.336344
656 2 0.363275 0.352807 0.336834
189 1 0.650794 0.384162 0.324824
67 1 0.55656 0.232457 0.341849
114 1 0.635357 0.290229 0.291793
650 2 0.621139 0.520193 0.309545
179 1 0.96255 0.251114 0.316072
133 1 0.796515 0.28059 0.322877
629 2 0.939839 0.305993 0.35452
194 1 0.767208 0.459426 0.321742
697 2 0.160578 0.691203 0.304423
153 1 0.983879 0.740746 0.327265
207 1 0.27806 0.625222 0.345315
178 1 0.0162808 0.585603 0.314264
195 1 0.470431 0.547193 0.299059
168 1 0.347646 0.526098 0.321854
163 1 0.40881 0.679089 0.323502
154 1 0.721535 0.60832 0.337157
146 1 0.500622 0.579834 0.337584
703 2 0.587145 0.680405 0.317207
641 2 0.834506 0.53968 0.289335
170 1 0.913641 0.492112 0.332752
175 1 0.826755 0.690511 0.313958
614 2 0.12915 0.831057 0.300484
680 2 0.0873864 0.948939 0.321105
197 1 0.241934 0.911871 0.340493
177 1 0.278277 0.970041 0.295295
221 1 0.271849 0.772995 0.331351
696 2 0.387741 0.857365 0.325714
224 1 0.363543 0.994326 0.325121
124 1 0.52319 0.806997 0.312125
198 1 0.693997 0.798911 0.326579
724 2 0.616369 0.924764 0.320713
631 2 0.519641 0.984006 0.351882
81 1 0.789641 0.870543 0.296547
625 2 0.918824 0.963858 0.308864
673 2 0.714083 0.0132629 0.34006
662 2 0.929507 0.0126393 0.34556
588 2 0.867199 0.875495 0.33247
181 1 0.244576 0.21541 0.39033
240 1 0.1119 0.17664 0.375331
660 2 0.199694 0.992417 0.379759
321 1 0.155672 0.122775 0.417462
236 1 0.289427 0.0904712 0.357063
136 1 0.55162 0.0614373 0.396457
678 2 0.398389 0.257996 0.406652
257 1 0.330491 0.0822259 0.400521
190 1 0.63224 0.126758 0.364128
187 1 0.682692 0.11718 0.408163
698 2 0.803703 0.00483843 0.380111
706 2 0.667345 0.991563 0.385327
716 2 0.699344 0.300157 0.360374
749 2 0.792236 0.180564 0.362055
715 2 0.953596 0.0828944 0.383015
709 2 0.8493 0.177127 0.405922
720 2 0.186951 0.501028 0.378754
180 1 0.0989607 0.303014 0.350942
584 2 0.15793 0.288653 0.41242
710 2 0.0619816 0.351386 0.389623
643 2 0.406558 0.219083 0.363815
677 2 0.31446 0.358758 0.378783
188 1 0.487128 0.36014 0.367
661 2 0.348362 0.490569 0.363263
714 2 0.456934 0.424391 0.399033
657 2 0.661325 0.491287 0.358882
162 1 0.537091 0.2182 0.385676
669 2 0.613569 0.391558 0.387006
237 1 0.807501 0.413887 0.355001
666 2 0.769248 0.422441 0.391859
165 1 0.927767 0.313444 0.403575
644 2 0.904842 0.473204 0.377812
682 2 0.13781 0.572196 0.34471
700 2 0.020777 0.770762 0.39514
712 2 0.188375 0.646009 0.388093
156 1 0.0405181 0.534479 0.386106
725 2 0.344546 0.622363 0.378539
717 2 0.478404 0.711104 0.357138
645 2 0.62222 0.729887 0.356989
143 1 0.490902 0.534315 0.376784
779 2 0.679991 0.551641 0.395699
158 1 0.954984 0.631516 0.354238
674 2 0.822576 0.631559 0.37348
191 1 0.832967 0.571059 0.407918
159 1 0.121264 0.745452 0.340941
705 2 0.0845613 0.926961 0.363258
681 2 0.211295 0.956848 0.428901
225 1 0.215115 0.834064 0.37489
205 1 0.065688 0.0152959 0.404452
212 1 0.349654 0.769813 0.361664
646 2 0.396227 0.962447 0.374417
741 2 0.472597 0.718623 0.394882
199 1 0.3028 0.749553 0.402487
633 2 0.507464 0.842778 0.37427
209 1 0.670585 0.867479 0.360565
676 2 0.817026 0.779218 0.358957
173 1 0.696461 0.738575 0.396234
251 1 0.912137 0.893122 0.388278
184 1 0.13385 0.223366 0.448356
772 2 0.052431 0.962199 0.454394
792 2 0.172559 0.0779226 0.467596
791 2 0.333137 0.0398667 0.445136
713 2 0.269625 0.191384 0.431381
233 1 0.413452 0.199226 0.444602
213 1 0.454151 0.0210612 0.419714
182 1 0.551282 0.165836 0.42307
738 2 0.600305 0.109941 0.463942
702 2 0.657413 0.996555 0.424533
734 2 0.768705 0.0886652 0.439523
689 2 0.919694 0.0331045 0.424497
193 1 0.878283 0.206694 0.439832
659 2 0.0152222 0.190095 0.418165
261 1 0.034875 0.433709 0.460988
239 1 0.00939714 0.32339 0.431964
203 1 0.145703 0.459226 0.414156
688 2 0.30428 0.465834 0.410119
265 1 0.403008 0.384989 0.43725
736 2 0.259464 0.381563 0.440271
216 1 0.535208 0.312631 0.42905
132 1 0.573495 0.468374 0.42392
218 1 0.517121 0.406132 0.468129
300 1 0.668637 0.400765 0.454116
692 2 0.74475 0.29996 0.41617
234 1 0.815522 0.396028 0.440472
217 1 0.959186 0.466078 0.414762
196 1 0.248176 0.620655 0.427987
222 1 0.193377 0.489205 0.455866
737 2 0.0576995 0.640257 0.417206
701 2 0.0780815 0.586129 0.457979
726 2 0.185722 0.713432 0.465394
220 1 0.414815 0.597747 0.412886
167 1 0.449141 0.512726 0.44508
227 1 0.494902 0.670799 0.458493
171 1 0.58488 0.687337 0.415259
255 1 0.603453 0.561548 0.456021
206 1 0.756615 0.683609 0.432297
685 2 0.763013 0.526796 0.450525
723 2 0.920255 0.591617 0.437135
246 1 0.854609 0.744775 0.397806
200 1 0.162851 0.788149 0.420465
746 2 0.246564 0.89702 0.475656
755 2 0.0797408 0.807622 0.465011
223 1 0.48598 0.799508 0.434151
296 1 0.325471 0.76155 0.445722
708 2 0.345239 0.907677 0.416451
174 1 0.412062 0.901753 0.459807
208 1 0.548748 0.961066 0.459904
727 2 0.617563 0.82997 0.448885
733 2 0.601211 0.84744 0.40578
264 1 0.714281 0.981176 0.467077
654 2 0.967169 0.876102 0.427557
693 2 0.877946 0.747325 0.440265
232 1 0.816047 0.917666 0.424508
229 1 0.77225 0.833348 0.453746
684 2 0.884809 0.940146 0.462241
763 2 0.018107 0.126871 0.466909
272 1 0.131678 0.141429 0.503807
259 1 0.221656 0.283889 0.502362
742 2 0.422324 0.0403424 0.514994
269 1 0.278701 0.0281901 0.49159
219 1 0.408959 0.0894229 0.476937
285 1 0.268516 0.219528 0.46676
728 2 0.258484 0.126698 0.52293
366 1 0.398998 0.206447 0.511846
718 2 0.732575 0.245445 0.456796
289 1 0.708361 0.186179 0.500415
260 1 0.555836 0.263071 0.469366
778 2 0.559941 0.205814 0.503798
683 2 0.835378 0.0677797 0.479697
711 2 0.965541 0.106866 0.505036
704 2 0.868922 0.220285 0.483715
242 1 0.0803803 0.254835 0.485998
745 2 0.253283 0.390365 0.48158
215 1 0.0101225 0.232201 0.5241
732 2 0.153036 0.416929 0.515373
258 1 0.326333 0.368434 0.520196
721 2 0.388719 0.318769 0.470632
695 2 0.375638 0.492748 0.48011
748 2 0.386547 0.516793 0.522979
308 1 0.660494 0.327876 0.497141
249 1 0.473538 0.38129 0.50369
823 2 0.589345 0.464716 0.52467
767 2 0.918038 0.337688 0.464875
275 1 0.902409 0.498335 0.47884
740 2 0.992644 0.363367 0.499679
759 2 0.828445 0.3138 0.515823
739 2 0.796639 0.386998 0.482874
186 1 0.108878 0.503217 0.490765
785 2 0.0285057 0.621426 0.502142
735 2 0.239251 0.711879 0.500143
762 2 0.32076 0.632086 0.467586
766 2 0.413225 0.645916 0.504854
278 1 0.269089 0.567295 0.498903
753 2 0.692607 0.698143 0.469465
204 1 0.519883 0.534304 0.492718
314 1 0.604195 0.612783 0.520475
754 2 0.685528 0.551883 0.488014
214 1 0.550107 0.732037 0.489461
722 2 0.833408 0.651139 0.474001
230 1 0.925347 0.50592 0.515929
309 1 0.790948 0.615289 0.515753
744 2 0.775461 0.450317 0.518453
284 1 0.045321 0.938509 0.492027
250 1 0.0187578 0.772396 0.495592
747 2 0.184898 0.88302 0.508953
780 2 0.146792 0.73029 0.527075
707 2 0.399152 0.757888 0.477983
287 1 0.362035 0.890133 0.498151
210 1 0.443432 0.778925 0.520791
235 1 0.588207 0.0568572 0.497643
668 2 0.691813 0.813797 0.49701
824 2 0.729913 0.988248 0.511735
731 2 0.57735 0.751705 0.537056
279 1 0.553756 0.897985 0.497382
774 2 0.867992 0.823644 0.491157
282 1 0.881787 0.954535 0.510746
663 2 0.932181 0.696841 0.524011
865 2 0.789407 0.845966 0.524337
281 1 0.140008 0.255287 0.592732
764 2 0.145872 0.181232 0.550452
243 1 0.0357631 0.0521586 0.57904
263 1 0.327426 0.122039 0.567439
357 1 0.312081 0.249399 0.544844
299 1 0.464048 0.186474 0.546932
348 1 0.430655 0.0249916 0.573051
809 2 0.699289 0.120765 0.533078
274 1 0.684413 0.162253 0.568561
798 2 0.558555 0.0498219 0.544169
758 2 0.601566 0.0143534 0.584871
804 2 0.853695 0.14147 0.529665
757 2 0.99538 0.0651702 0.541125
729 2 0.967836 0.305039 0.557981
277 1 0.891818 0.114935 0.567174
320 1 0.782655 0.276364 0.548358
781 2 0.110623 0.332352 0.550837
295 1 0.0400831 0.437735 0.568828
228 1 0.440381 0.343883 0.538928
811 2 0.233068 0.503223 0.539059
341 1 0.272127 0.353947 0.584551
254 1 0.612849 0.283927 0.587757
270 1 0.604007 0.272076 0.547468
761 2 0.687119 0.404251 0.553759
694 2 0.54392 0.421558 0.56615
765 2 0.865676 0.415863 0.553126
795 2 0.763976 0.38094 0.588856
776 2 0.911429 0.490738 0.586598
315 1 0.0571906 0.507645 0.537858
298 1 0.00730059 0.659538 0.589271
283 1 0.267754 0.62889 0.581
775 2 0.148995 0.655432 0.559247
192 1 0.0983654 0.800749 0.587091
267 1 0.307409 0.646563 0.542565
322 1 0.469542 0.634009 0.551134
288 1 0.448285 0.775489 0.559074
350 1 0.422701 0.59523 0.587837
245 1 0.721431 0.656412 0.548063
750 2 0.602247 0.568115 0.569123
790 2 0.756551 0.517311 0.568092
793 2 0.00293816 0.733234 0.558191
262 1 0.877683 0.800286 0.568988
244 1 0.878309 0.60645 0.548571
290 1 0.131225 0.944694 0.539498
256 1 0.214153 0.855135 0.562452
751 2 0.196448 0.0432545 0.568946
822 2 0.0347197 0.904673 0.568612
310 1 0.280919 0.979544 0.53375
752 2 0.292353 0.800225 0.530549
266 1 0.426748 0.933463 0.541802
832 2 0.337095 0.888415 0.579793
273 1 0.575316 0.738486 0.581296
372 1 0.575902 0.892683 0.551607
783 2 0.710249 0.8284 0.565722
291 1 0.739375 0.0201694 0.569123
770 2 0.999027 0.846937 0.531659
306 1 0.807112 0.889707 0.594179
789 2 0.863467 0.946145 0.551731
799 2 0.147366 0.110811 0.608426
871 2 0.0788171 0.249851 0.633779
803 2 0.211079 0.012201 0.635788
788 2 0.054252 0.0643546 0.63633
349 1 0.291896 0.209562 0.599207
319 1 0.31988 0.0644748 0.604342
292 1 0.262815 0.148222 0.634955
276 1 0.423579 0.157331 0.624794
782 2 0.47226 0.287112 0.575466
794 2 0.51281 0.149264 0.587859
335 1 0.675345 0.100598 0.625421
268 1 0.795133 0.102507 0.599622
304 1 0.956432 0.145119 0.604759
817 2 0.875496 0.0806381 0.638048
294 1 0.995785 0.291695 0.59783
825 2 0.204167 0.357021 0.624635
814 2 0.312008 0.489353 0.611675
829 2 0.0869581 0.480157 0.60603
303 1 0.0670701 0.403601 0.641472
241 1 0.42575 0.446716 0.593102
253 1 0.37982 0.309058 0.621462
376 1 0.49628 0.279862 0.656854
769 2 0.621334 0.442162 0.599906
311 1 0.703193 0.260196 0.617615
340 1 0.740472 0.389794 0.635726
328 1 0.526506 0.333183 0.616884
845 2 0.882001 0.249197 0.631977
313 1 0.849103 0.26237 0.585263
271 1 0.876445 0.395089 0.616516
302 1 0.18437 0.497575 0.577045
368 1 0.139932 0.633009 0.603998
860 2 0.320749 0.64247 0.625186
815 2 0.439165 0.519501 0.627903
293 1 0.610447 0.505659 0.639281
226 1 0.574891 0.638087 0.619536
826 2 0.701044 0.668376 0.592834
808 2 0.705578 0.703983 0.63481
813 2 0.75673 0.554431 0.613689
840 2 0.798525 0.579019 0.651603
843 2 0.847436 0.64356 0.583372
797 2 0.905185 0.675031 0.616796
280 1 0.0519776 0.939959 0.614115
796 2 0.112935 0.754831 0.630318
864 2 0.975699 0.767081 0.650338
760 2 0.268254 0.753913 0.640583
777 2 0.235629 0.79902 0.596576
743 2 0.410142 0.748848 0.600524
343 1 0.378085 0.959414 0.626878
818 2 0.190437 0.950517 0.600597
374 1 0.513688 0.0231871 0.618162
325 1 0.501816 0.893799 0.590652
297 1 0.649904 0.866118 0.613242
849 2 0.507362 0.819973 0.626192
730 2 0.948835 0.837605 0.601515
286 1 0.916573 1.00111 0.60532
326 1 0.77067 0.980583 0.625628
784 2 0.910541 0.894534 0.641015
301 1 0.78272 0.801242 0.622043
802 2 0.151524 0.26998 0.670419
863 2 0.0957227 0.0994107 0.671414
345 1 0.0424893 0.246507 0.692555
771 2 0.269382 0.22009 0.692333
346 1 0.244729 0.0784284 0.683095
787 2 0.393985 0.139344 0.678397
900 2 0.357776 0.994658 0.682115
801 2 0.535327 0.237976 0.692672
812 2 0.709151 0.218853 0.695514
333 1 0.536407 0.110327 0.66891
365 1 0.685786 0.0930463 0.666796
443 1 0.634476 0.978198 0.68579
331 1 0.947011 0.193323 0.664282
807 2 0.979124 0.00895099 0.66954
827 2 0.797738 0.196049 0.664036
838 2 0.251446 0.40364 0.66303
821 2 0.261345 0.375989 0.700547
334 1 0.107679 0.48374 0.67238
891 2 0.302683 0.266057 0.655405
896 2 0.411162 0.328143 0.68423
364 1 0.418639 0.408051 0.649246
768 2 0.466403 0.442298 0.702538
862 2 0.599033 0.390166 0.672731
248 1 0.636318 0.221693 0.654845
773 2 0.765328 0.349654 0.672769
370 1 0.947098 0.350745 0.665521
397 1 0.880362 0.25206 0.698773
850 2 0.00630312 0.5515 0.642571
836 2 0.111423 0.648905 0.660369
355 1 0.124984 0.686535 0.699772
424 1 0.221644 0.556587 0.690036
842 2 0.228013 0.552728 0.646293
831 2 0.447334 0.684646 0.651042
362 1 0.367499 0.509338 0.677725
756 2 0.315392 0.664265 0.671873
317 1 0.460815 0.655128 0.695307
324 1 0.643308 0.618955 0.663222
872 2 0.743503 0.49674 0.68002
847 2 0.529799 0.530278 0.672455
360 1 0.61021 0.528547 0.705491
886 2 0.624759 0.739346 0.705618
873 2 0.896575 0.493548 0.678075
379 1 0.976813 0.687423 0.685458
358 1 0.754892 0.637683 0.696385
800 2 0.0892031 0.933788 0.651662
867 2 0.240612 0.868101 0.70586
252 1 0.09166 0.821306 0.680648
846 2 -0.00198178 0.952884 0.71011
819 2 0.396287 0.833351 0.655513
874 2 0.241854 0.897729 0.668673
316 1 0.520997 0.875901 0.699707
327 1 0.497477 0.969684 0.663254
869 2 0.369561 0.795313 0.68977
353 1 0.626384 0.978734 0.648679
342 1 0.723769 0.857979 0.698807
909 2 0.559213 0.787117 0.662836
305 1 0.737842 0.848224 0.658472
332 1 0.822819 0.726655 0.663402
810 2 0.818937 0.976719 0.671268
854 2 0.905642 0.859082 0.684886
930 2 0.10563 0.0938048 0.711124
359 1 0.158607 0.139376 0.749909
377 1 -0.00306618 0.08911 0.747128
830 2 0.977069 0.231781 0.73383
416 1 0.336661 0.0986045 0.715309
880 2 0.400562 0.108083 0.763335
323 1 0.507898 0.000526854 0.742042
851 2 0.493507 0.132945 0.716427
859 2 0.705445 0.0870289 0.716955
375 1 0.540401 0.147733 0.753497
449 1 0.620421 0.0398529 0.765768
361 1 0.957523 0.101852 0.700632
853 2 0.857103 0.120221 0.728463
861 2 0.158974 0.252326 0.724551
386 1 0.0603816 0.397689 0.700834
387 1 0.991226 0.364512 0.74907
338 1 0.291984 0.391087 0.748351
835 2 0.15419 0.439163 0.754477
858 2 0.333296 0.472707 0.719902
901 2 0.433246 0.385044 0.75542
312 1 0.380446 0.280959 0.728245
834 2 0.539932 0.323769 0.722706
390 1 0.756651 0.258929 0.731926
844 2 0.687739 0.366508 0.708172
935 2 0.610749 0.368622 0.757703
816 2 0.868472 0.226653 0.762689
422 1 0.90589 0.398698 0.715929
430 1 0.720775 0.466631 0.742715
848 2 0.175107 0.482709 0.719785
839 2 0.0435579 0.559038 0.710239
855 2 0.0220538 0.515502 0.755845
384 1 0.185938 0.608365 0.743602
942 2 0.125852 0.733073 0.764719
892 2 0.994052 0.687378 0.727986
820 2 0.325419 0.64019 0.718743
877 2 0.334265 0.686369 0.755484
367 1 0.538929 0.488893 0.738551
898 2 0.722173 0.632978 0.731876
396 1 0.52061 0.670982 0.731195
389 1 0.806326 0.752201 0.719698
875 2 0.88073 0.56608 0.742816
423 1 0.892814 0.602244 0.707744
870 2 0.918065 0.702985 0.760891
473 1 0.221848 0.738221 0.724458
852 2 0.248355 -0.00392785 0.721685
398 1 0.0986299 0.84403 0.723646
352 1 0.127501 0.96842 0.748502
420 1 0.291042 0.866404 0.740799
347 1 0.415967 0.770747 0.727965
318 1 0.41355 0.960551 0.717635
837 2 0.737861 0.948521 0.737526
339 1 0.608777 0.882444 0.730922
897 2 0.668849 0.741766 0.753738
337 1 0.840571 0.959966 0.708885
330 1 0.936579 0.825591 0.728151
411 1 0.0356136 0.860899 0.764496
882 2 0.915953 0.957795 0.743954
382 1 0.822862 0.819495 0.754786
921 2 0.124323 0.0137562 0.786677
895 2 0.0504523 0.179512 0.773769
954 2 0.196091 0.0932585 0.826792
497 1 0.94616 0.134233 0.811739
828 2 0.502423 0.2671 0.767884
407 1 0.220311 0.140513 0.787351
373 1 0.492026 0.0316551 0.786658
363 1 0.269976 0.0337579 0.759821
786 2 0.403242 0.135047 0.815228
884 2 0.684246 0.108385 0.821676
481 1 0.596874 0.14948 0.791152
356 1 0.89488 0.0913783 0.774028
460 1 0.74958 0.126116 0.774841
806 2 0.812954 0.21017 0.811109
990 2 0.172192 0.294802 0.768056
441 1 0.0523444 0.397556 0.786127
984 2 0.196722 0.312178 0.805302
429 1 0.3875 0.285176 0.801413
408 1 0.321633 0.242008 0.766231
378 1 0.326553 0.419052 0.801234
889 2 0.612701 0.302646 0.792214
380 1 0.681766 0.236189 0.760096
329 1 0.664095 0.484754 0.789053
405 1 0.468422 0.402311 0.792407
434 1 0.519954 0.239422 0.822599
410 1 0.776446 0.360179 0.769929
413 1 0.791731 0.436138 0.813098
893 2 0.872167 0.494487 0.779983
964 2 0.914209 0.323723 0.807938
805 2 0.142836 0.52443 0.794191
879 2 0.226205 0.695783 0.790491
972 2 0.030806 0.631655 0.785247
905 2 0.0559493 0.594182 0.82526
881 2 0.281987 0.511962 0.771028
841 2 0.329805 0.604796 0.808949
910 2 0.429395 0.540955 0.77809
915 2 0.428622 0.690844 0.785524
391 1 0.603691 0.598796 0.764544
381 1 0.666281 0.635851 0.813745
400 1 0.57092 0.699848 0.7939
393 1 0.882992 0.588677 0.808992
404 1 0.754194 0.768655 0.788948
414 1 0.742276 0.614001 0.777092
351 1 0.911129 0.738577 0.814406
425 1 0.121179 0.967642 0.823717
344 1 0.0711124 0.773115 0.799487
406 1 0.19506 0.870755 0.780859
412 1 0.291557 0.96218 0.801629
924 2 0.393394 0.927 0.761709
941 2 0.34259 0.811871 0.793971
383 1 0.504607 0.870146 0.796661
307 1 0.637825 0.877084 0.775101
385 1 0.797382 0.975211 0.773871
833 2 0.508489 0.808865 0.756572
354 1 0.740751 0.962382 0.81006
899 2 0.96709 0.978067 0.796192
392 1 0.907991 0.83829 0.784867
457 1 0.0616427 0.231456 0.82929
956 2 0.141745 0.138544 0.858572
483 1 0.999108 0.0600485 0.847186
968 2 0.0412638 0.294088 0.871972
428 1 0.107745 0.0486644 0.88726
462 1 0.442773 0.990303 0.823518
928 2 0.283492 0.22692 0.831722
452 1 0.314284 0.150692 0.862495
336 1 0.530866 0.0849349 0.844779
866 2 0.242448 0.999316 0.869928
937 2 0.444211 0.0360258 0.870297
868 2 0.71829 0.215572 0.847821
887 2 0.646466 0.0749892 0.868961
450 1 0.676318 0.2452 0.8854
938 2 0.816213 0.109071 0.85361
976 2 0.93262 0.241753 0.84226
953 2 0.819375 0.243241 0.878252
30 1 0.950236 0.161993 0.871682
916 2 0.118176 0.416446 0.838361
934 2 0.195769 0.291231 0.860214
476 1 0.163683 0.419659 0.882836
388 1 0.237493 0.485197 0.82864
857 2 0.488219 0.405431 0.829616
418 1 0.300208 0.475392 0.8702
501 2 0.31115 0.367215 0.84272
32 1 0.47372 0.477052 0.885389
949 2 0.476298 0.314169 0.861211
417 1 0.651235 0.371987 0.823768
960 2 0.687088 0.386556 0.866478
876 2 0.825604 0.347748 0.847088
435 1 0.948723 0.454895 0.826491
996 2 0.967553 0.425733 0.864481
912 2 0.193256 0.682908 0.828247
426 1 0.167027 0.56323 0.855587
431 1 0.0577039 0.551824 0.878229
470 1 0.967858 0.672766 0.88681
944 2 0.0123193 0.735354 0.840753
883 2 0.504723 0.588038 0.807648
932 2 0.384286 0.558339 0.847138
878 2 0.303307 0.688209 0.860827
913 2 0.528574 0.642394 0.87421
894 2 0.343342 0.749697 0.827716
933 2 0.787074 0.533005 0.842498
919 2 0.609811 0.522819 0.838337
395 1 0.687847 0.652998 0.861629
856 2 0.783635 0.673514 0.833838
955 2 0.782979 0.522366 0.878303
966 2 0.914854 0.607301 0.851826
415 1 0.821503 0.703341 0.883174
22 1 0.221215 0.83349 0.825035
890 2 0.11938 0.755695 0.867633
453 1 0.0851003 0.918636 0.866892
911 2 0.991365 0.862518 0.824747
940 2 0.430735 0.754602 0.869592
401 1 0.343914 0.934227 0.845478
439 1 0.266914 0.823248 0.871429
925 2 0.578494 0.947917 0.83518
920 2 0.676157 0.804618 0.819528
369 1 0.730132 0.95622 0.851253
445 1 0.579626 0.930345 0.872853
917 2 0.493754 0.762171 0.827591
469 1 0.586799 0.770994 0.865248
421 1 0.882872 0.993568 0.825757
922 2 0.885812 0.964841 0.869618
461 1 0.929482 0.806046 0.865811
394 1 0.821784 0.839036 0.835444
451 1 0.12923 0.273153 0.913763
970 2 0.211122 0.129157 0.908838
463 1 0.43353 0.177463 0.88811
474 1 0.453927 0.221125 0.927613
923 2 0.363701 0.0802949 0.914714
399 1 0.531959 0.0633649 0.911358
904 2 0.78062 0.0955877 0.890821
950 2 0.636425 0.187746 0.918211
515 2 0.557869 0.120023 0.950356
5 1 0.680707 0.0539194 0.931791
427 1 0.833085 0.102399 0.925797
442 1 0.975779 0.0877408 0.91016
419 1 0.0257284 0.40437 0.902923
988 2 0.246981 0.384529 0.926556
403 1 0.28209 0.299394 0.895841
446 1 0.400792 0.371126 0.908803
505 2 0.418736 0.396588 0.953045
493 1 0.553646 0.328617 0.899876
466 1 0.511579 0.472623 0.921846