ITEM: TIMESTEP
11400
ITEM: NUMBER OF ATOMS
1000
ITEM: BOX BOUNDS pp pp pp
0.0000000000000000e+00 6.2996052494743662e+00
0.0000000000000000e+00 6.2996052494743662e+00
0.0000000000000000e+00 2.5198420997897465e+01
ITEM: ATOMS id type xs ys zs
46 1 0.137331 0.0214033 0.0433112
486 1 0.0315027 0.119927 0.0525423
13 1 0.170881 0.149923 0.0208375
28 1 0.342365 0.139869 0.0514519
526 2 0.38753 0.306085 0.0588122
17 1 0.453615 0.144973 0.0265232
498 1 0.441725 0.995672 0.0394202
454 1 0.285078 0.271499 0.0325434
529 2 0.623869 0.0330424 0.0507896
573 2 0.579001 0.220591 0.0178504
571 2 0.576262 0.0375561 0.0128887
36 1 0.710323 0.102485 0.012802
544 2 0.851995 0.210097 0.0393336
534 2 0.765552 0.939747 0.0493255
507 2 0.85994 0.0585968 0.0182472
100 1 0.889555 0.0367814 0.0597611
16 1 0.993234 0.21391 0.0226555
528 2 0.152995 0.235505 0.0560088
510 2 0.121624 0.289813 0.0143523
987 2 0.167314 0.62003 0.0251963
927 2 0.169414 0.503124 0.988535
532 2 0.9929 0.470842 0.0190656
489 1 0.304541 0.487299 0.026331
63 1 0.43836 0.567017 0.0363884
979 2 0.405289 0.306632 0.00115668
506 2 0.572036 0.492652 0.0422128
999 2 0.620624 0.369068 0.0178032
982 2 0.680248 0.25927 0.0455209
512 2 0.478202 0.369286 0.0344827
477 1 0.943811 0.322745 0.997042
485 1 0.781049 0.343907 0.0314321
977 2 0.948455 0.346422 0.0395573
73 1 0.75681 0.460585 0.0615824
963 2 0.340354 0.699203 0.0115478
86 1 0.0204834 0.658848 0.0311579
514 2 0.46795 0.755397 0.0309498
980 2 0.342991 0.564907 0.98941
989 2 0.706966 0.55407 0.0360861
998 2 0.55747 0.616585 0.0598972
33 1 0.704693 0.657248 0.0618168
978 2 0.504025 0.625784 0.00375498
947 2 0.649469 0.691063 0.0234885
961 2 0.886371 0.570833 0.0281809
545 2 0.881954 0.718984 0.0294586
31 1 0.77386 0.643324 0.00134698
997 2 0.281683 0.73876 0.0477245
37 1 0.146981 0.806554 0.0143966
525 2 0.167964 0.874955 0.0540585
524 2 0.283988 0.823764 0.994426
18 1 0.35252 0.876782 0.0368874
918 2 0.282447 0.0072982 0.0185592
9 1 0.425871 0.939227 0.00357907
12 1 0.581172 0.863551 0.0301127
95 1 0.752612 0.7943 0.0468861
29 1 0.750153 0.957048 0.012442
971 2 0.574949 0.770492 0.05924
488 1 0.984251 0.791516 0.00573378
21 1 0.994583 0.810762 0.0478267
936 2 0.00336524 0.0033756 0.0102839
549 2 0.929902 0.929135 0.0355486
11 1 0.132021 0.151042 0.0871141
985 2 0.0438529 0.350878 0.0710475
560 2 0.343752 0.0240669 0.0772315
600 2 0.525912 0.215015 0.063125
48 1 0.448301 0.171443 0.110152
548 2 0.482217 0.0624478 0.0724559
27 1 0.753857 0.117804 0.0488382
503 2 0.598539 0.143072 0.118486
1 1 0.990912 0.0814598 0.0993961
565 2 0.788924 0.0860368 0.109812
598 2 0.857981 0.249327 0.112091
41 1 0.918655 0.190466 0.0766091
85 1 0.128079 0.417639 0.0401601
77 1 0.0848531 0.423136 0.104833
581 2 0.240312 0.365136 0.0640619
7 1 0.386307 0.468373 0.066138
527 2 0.42152 0.307329 0.0957851
52 1 0.285116 0.183918 0.0860069
551 2 0.246958 0.44514 0.100477
521 2 0.689962 0.126318 0.0832406
552 2 0.627103 0.357047 0.0764558
35 1 0.763497 0.295555 0.0766015
981 2 0.928039 0.483485 0.0636523
89 1 0.940666 0.383338 0.109665
65 1 0.226314 0.53492 0.0665008
957 2 0.0697779 0.511285 0.0711273
10 1 0.00363333 0.658753 0.109601
517 2 0.158261 0.580345 0.10141
70 1 0.123377 0.681621 0.0706472
64 1 0.925578 0.532319 0.103156
519 2 0.460835 0.613714 0.100157
547 2 0.314966 0.593095 0.108852
56 1 0.345261 0.62833 0.0622859
523 2 0.241618 0.731801 0.0923662
511 2 0.657608 0.526051 0.0864739
15 1 0.656003 0.670079 0.0967227
531 2 0.447346 0.537736 0.132098
537 2 0.394689 0.748001 0.0972381
520 2 0.827813 0.585292 0.0747125
40 1 0.96227 0.642844 0.0726989
533 2 0.803614 0.419659 0.0982665
967 2 0.0232402 0.9654 0.0748572
44 1 0.0426307 0.959621 0.119318
546 2 0.100874 0.81174 0.0925135
57 1 0.181406 0.998662 0.0778906
39 1 0.941932 0.852556 0.0978112
23 1 0.307399 0.874462 0.0882554
543 2 0.442634 0.985658 0.114143
559 2 0.477385 0.884732 0.0654473
516 2 0.630898 0.904766 0.0675932
96 1 0.648003 0.997562 0.0995248
577 2 0.553867 0.817269 0.0958492
502 2 0.835182 0.741529 0.0770892
575 2 0.793605 0.909305 0.0871795
80 1 0.0222712 0.132978 0.140861
566 2 0.153152 0.0289493 0.144779
82 1 0.173044 0.171473 0.13401
105 1 0.0125507 0.0419152 0.175125
580 2 0.00591382 0.193061 0.174487
101 1 0.315171 0.210486 0.124918
555 2 0.265479 0.00364788 0.110787
599 2 0.528696 0.116103 0.165936
93 1 0.324648 0.181407 0.172391
92 1 0.377152 0.0705294 0.149037
99 1 0.68267 0.0908195 0.159819
79 1 0.630777 0.303505 0.116627
34 1 0.732256 0.180966 0.136818
59 1 0.735916 0.967479 0.131814
554 2 0.864029 0.114593 0.155863
590 2 0.0302883 0.236407 0.108488
582 2 0.947944 0.462131 0.147079
83 1 0.187059 0.311144 0.114006
564 2 0.0587771 0.344286 0.139632
595 2 0.10413 0.433145 0.172721
125 1 0.166067 0.48849 0.133513
538 2 0.320263 0.363423 0.127922
561 2 0.27581 0.321244 0.164306
78 1 0.443164 0.256717 0.146569
556 2 0.441067 0.362493 0.171388
558 2 0.47286 0.445059 0.103242
50 1 0.637507 0.476396 0.120903
62 1 0.514033 0.405981 0.140121
26 1 0.912323 0.267846 0.151265
604 2 0.771057 0.319881 0.140141
94 1 0.790987 0.476631 0.136104
54 1 0.969379 0.355321 0.180605
84 1 0.781159 0.398435 0.174551
550 2 0.255958 0.710394 0.131621
553 2 0.119079 0.674233 0.135658
98 1 0.0460745 0.757992 0.168752
91 1 0.141794 0.588688 0.170495
38 1 0.429046 0.705138 0.136323
570 2 0.4655 0.720665 0.196428
141 1 0.323908 0.606577 0.15433
97 1 0.367681 0.760168 0.167084
509 2 0.613464 0.576591 0.148712
116 1 0.444264 0.546434 0.173612
14 1 0.651508 0.653419 0.178526
90 1 0.645705 0.727781 0.140985
66 1 0.793409 0.651782 0.134325
594 2 0.944513 0.642775 0.149192
42 1 0.0246736 0.80892 0.130691
541 2 0.137957 0.891811 0.16182
542 2 0.19346 0.870184 0.120964
53 1 0.277841 0.957386 0.146218
597 2 0.367602 0.860631 0.129138
589 2 0.501432 0.950225 0.160812
88 1 0.519864 0.829828 0.132625
69 1 0.685101 0.934841 0.167914
539 2 0.588016 0.994291 0.130701
139 1 0.572944 0.819463 0.173259
513 2 0.696738 0.836936 0.115925
576 2 0.901581 0.985775 0.132193
60 1 0.974914 0.90202 0.16406
587 2 0.832333 0.840255 0.128266
540 2 0.775468 0.766 0.158743
68 1 0.827316 0.969512 0.17459
610 2 0.098746 0.169672 0.211337
638 2 0.269908 0.233237 0.20794
118 1 0.218446 0.0971627 0.222489
74 1 0.369803 0.113911 0.213546
586 2 0.407843 0.281338 0.227067
583 2 0.158034 0.146618 0.172802
112 1 0.464344 0.211714 0.193234
76 1 0.606599 0.270581 0.16015
110 1 0.61449 0.195622 0.218549
157 1 0.513327 0.0535494 0.197925
579 2 0.6126 0.0591894 0.245137
150 1 0.83699 0.261982 0.194039
109 1 0.77342 0.108962 0.195195
605 2 0.936453 0.126346 0.210616
535 2 0.0308759 0.494277 0.221803
107 1 0.136323 0.284485 0.170864
651 2 0.106327 0.316016 0.208599
128 1 0.128657 0.229103 0.254384
87 1 0.29867 0.47107 0.170417
611 2 0.24823 0.373836 0.214362
608 2 0.572397 0.339682 0.208195
557 2 0.594509 0.463897 0.169558
671 2 0.696353 0.279278 0.189153
607 2 0.703376 0.376314 0.229369
601 2 0.96169 0.346919 0.219006
81 1 0.854646 0.412073 0.207479
104 1 0.885711 0.555895 0.207691
111 1 0.997828 0.561733 0.183952
622 2 0.122041 0.685706 0.200573
606 2 0.171653 0.492448 0.207997
618 2 0.128265 0.581753 0.246504
591 2 0.225048 0.713272 0.234374
632 2 0.319894 0.609659 0.194092
142 1 0.452794 0.628508 0.232439
72 1 0.393747 0.470708 0.208907
67 1 0.545158 0.584912 0.20245
592 2 0.6643 0.59253 0.239064
635 2 0.732367 0.50683 0.208221
563 2 0.758502 0.667068 0.203789
615 2 0.840909 0.551305 0.174145
108 1 0.935412 0.690626 0.205485
122 1 0.209191 0.750276 0.168539
596 2 0.165745 0.0159594 0.19037
642 2 0.0146904 0.851955 0.198762
536 2 0.387647 0.999333 0.182983
578 2 0.26677 0.913948 0.183666
127 1 0.307921 0.977773 0.218908
613 2 0.330731 0.794334 0.20777
562 2 0.465623 0.888517 0.199668
572 2 0.64795 0.966145 0.214694
144 1 0.698543 0.793819 0.188007
593 2 0.608592 0.736927 0.215216
117 1 0.907266 0.943019 0.218649
530 2 0.865796 0.818598 0.18974
55 1 0.797553 0.0854234 0.233333
648 2 0.893929 0.801928 0.237365
602 2 0.212643 0.113695 0.270127
172 1 0.0425663 0.165284 0.279369
102 1 0.049401 0.098624 0.243955
603 2 0.382613 0.0882056 0.252757
134 1 0.49251 0.968421 0.23107
131 1 0.469909 0.985544 0.272228
137 1 0.386095 0.243487 0.272584
124 1 0.516299 0.199236 0.25624
653 2 0.589139 0.0312018 0.292787
151 1 0.733312 0.0809607 0.277021
623 2 0.676854 0.210233 0.254741
569 2 0.973548 0.287819 0.252076
667 2 0.891246 0.152019 0.257833
652 2 0.783478 0.222919 0.289142
140 1 0.144008 0.400029 0.241406
145 1 0.202537 0.273855 0.291693
166 1 0.152602 0.554459 0.289125
636 2 0.25093 0.452052 0.274918
626 2 0.277953 0.252256 0.248074
675 2 0.328765 0.409761 0.244504
612 2 0.515418 0.318443 0.296289
138 1 0.557686 0.368283 0.246794
637 2 0.659254 0.372362 0.276095
585 2 0.822903 0.25978 0.234587
634 2 0.824826 0.490567 0.255682
135 1 0.99593 0.436767 0.256575
120 1 0.0400858 0.710517 0.243115
624 2 0.277639 0.64163 0.26946
620 2 0.0238262 0.572274 0.306626
617 2 0.258139 0.523494 0.237772
146 1 0.415058 0.551633 0.262821
103 1 0.371434 0.762618 0.252197
164 1 0.417763 0.690093 0.286234
114 1 0.441609 0.4012 0.271024
115 1 0.547001 0.701895 0.258936
670 2 0.520208 0.498232 0.233593
123 1 0.547494 0.514969 0.274717
665 2 0.813799 0.642565 0.240446
609 2 0.0637353 0.705327 0.283502
169 1 0.988885 0.589097 0.263551
629 2 0.873792 0.680494 0.278191
567 2 0.0913981 0.968695 0.223113
616 2 0.199975 0.858619 0.223476
121 1 0.0220524 0.865542 0.25792
672 2 0.181031 0.793828 0.266066
568 2 0.215488 0.979506 0.247567
153 1 0.330035 0.909995 0.254044
149 1 0.488297 0.807511 0.234201
147 1 0.435946 0.87009 0.304697
113 1 0.778485 0.871137 0.218623
647 2 0.566894 0.878798 0.265493
160 1 0.733698 0.802466 0.263398
588 2 0.755274 0.953724 0.249576
175 1 0.00772602 0.973004 0.289804
614 2 0.915135 0.983042 0.254665
621 2 0.888794 0.836946 0.276081
646 2 0.236005 0.165459 0.316365
182 1 0.138934 0.112024 0.345443
680 2 0.0482879 0.0859154 0.316622
163 1 0.310549 0.0225775 0.288466
197 1 0.368467 0.238134 0.31456
183 1 0.453364 0.113467 0.286481
640 2 0.616829 0.188845 0.298198
658 2 0.599194 0.0674001 0.331673
627 2 0.803549 0.0798042 0.356921
628 2 0.744073 0.051846 0.316138
119 1 0.948039 0.285884 0.296937
126 1 0.738436 0.206027 0.326511
180 1 0.901618 0.126679 0.295734
185 1 0.886497 0.154919 0.335049
661 2 0.164649 0.378757 0.319029
106 1 0.0723338 0.222235 0.315724
584 2 0.0177813 0.421453 0.304085
687 2 0.0223978 0.342121 0.335688
201 1 0.346999 0.378547 0.299057
650 2 0.44915 0.339637 0.338418
657 2 0.316432 0.321162 0.343576
167 1 0.369259 0.486465 0.339255
136 1 0.381395 0.23344 0.371883
662 2 0.586786 0.237268 0.344859
158 1 0.647702 0.351465 0.319853
129 1 0.740564 0.519664 0.295635
217 1 0.601461 0.381615 0.352964
133 1 0.79028 0.298157 0.360851
161 1 0.843945 0.359085 0.278549
699 2 0.836467 0.347044 0.326291
666 2 0.943991 0.529656 0.336955
194 1 0.73834 0.458273 0.333065
645 2 0.250917 0.432795 0.361437
641 2 0.158855 0.666133 0.31333
191 1 0.117519 0.548966 0.334512
720 2 0.278706 0.61811 0.333396
168 1 0.319987 0.550987 0.300556
619 2 0.552491 0.631326 0.299253
171 1 0.433292 0.663112 0.325257
143 1 0.5159 0.544221 0.349024
697 2 0.283382 0.745887 0.302923
630 2 0.709123 0.661865 0.272494
148 1 0.602865 0.501782 0.318594
198 1 0.607163 0.652055 0.346186
643 2 0.648318 0.518368 0.36857
170 1 0.768215 0.602348 0.325292
130 1 0.890797 0.525679 0.293628
649 2 0.895349 0.666062 0.316897
176 1 0.171569 0.969897 0.285452
700 2 0.0317524 0.926378 0.327151
207 1 0.218044 0.793227 0.345347
247 1 0.145959 0.834414 0.301517
177 1 0.392248 0.0181148 0.32103
696 2 0.287014 0.890322 0.306302
231 1 0.210801 0.00312711 0.325136
691 2 0.38501 0.806835 0.340282
673 2 0.539434 0.774866 0.331916
154 1 0.614844 0.784828 0.296271
190 1 0.607527 0.904493 0.324192
152 1 0.901242 0.81528 0.315046
625 2 0.740842 0.937799 0.290288
639 2 0.750693 0.789112 0.306906
196 1 0.029834 0.725178 0.32249
155 1 0.90117 0.00385796 0.319805
195 1 0.730279 0.736864 0.346646
677 2 0.0845965 0.0410984 0.397722
211 1 0.0867733 0.172024 0.425311
656 2 0.993137 0.196062 0.368093
706 2 0.299308 0.119354 0.34964
678 2 0.448704 0.159765 0.346051
702 2 0.31201 0.925896 0.362405
187 1 0.519173 0.170489 0.403859
188 1 0.23012 0.0767312 0.380307
238 1 0.436941 0.0271874 0.395056
655 2 0.723983 0.945362 0.348609
633 2 0.636241 0.0743467 0.401598
698 2 0.597107 0.00935497 0.366768
159 1 0.722888 0.961758 0.386628
679 2 0.974713 0.0270625 0.355863
179 1 0.890851 0.127003 0.385066
736 2 0.184355 0.222984 0.367951
213 1 0.302648 0.186596 0.401087
156 1 0.0889575 0.417433 0.368462
162 1 0.434456 0.307459 0.408429
669 2 0.4652 0.42823 0.378809
132 1 0.290374 0.346282 0.392327
686 2 0.695304 0.186214 0.373363
244 1 0.786131 0.447191 0.372344
692 2 0.547442 0.295904 0.383795
664 2 0.696853 0.351932 0.388085
718 2 0.626504 0.456711 0.403606
165 1 0.854481 0.277841 0.3925
184 1 0.98685 0.285404 0.41359
693 2 0.940245 0.42158 0.362262
216 1 0.991817 0.59608 0.377998
220 1 0.156145 0.563037 0.375885
199 1 0.127326 0.681028 0.357501
205 1 0.0689934 0.687065 0.399362
225 1 0.155446 0.805384 0.390318
631 2 0.372514 0.59795 0.368983
221 1 0.305643 0.78765 0.387018
725 2 0.421725 0.697984 0.409281
173 1 0.544782 0.642456 0.389661
676 2 0.68999 0.64454 0.383463
644 2 0.845872 0.621949 0.361367
186 1 0.0200058 0.475546 0.401184
275 1 0.838762 0.521791 0.400101
674 2 0.923522 0.75377 0.354046
682 2 0.142669 0.953994 0.369045
660 2 0.0354489 0.846138 0.354914
178 1 0.487942 0.927642 0.349639
223 1 0.465457 0.729335 0.364303
202 1 0.502481 0.857439 0.387411
174 1 0.620992 0.780987 0.407266
724 2 0.602599 0.77404 0.367104
690 2 0.93586 0.937269 0.387743
654 2 0.873579 0.918723 0.354178
200 1 0.952473 0.782024 0.394253
719 2 0.789272 0.810798 0.375405
236 1 0.111137 0.0387591 0.440723
261 1 0.1952 0.285186 0.438611
235 1 0.232294 0.103187 0.421449
232 1 0.3951 0.14508 0.426874
214 1 0.450448 0.970087 0.442906
684 2 0.550448 0.081719 0.433667
233 1 0.439342 0.118766 0.46497
705 2 0.723528 0.164385 0.453092
717 2 0.686728 0.0122137 0.435394
716 2 0.651587 0.230949 0.422071
729 2 0.584219 0.0203896 0.471815
189 1 0.763873 0.150544 0.407842
715 2 0.838802 0.0681762 0.455385
659 2 0.877816 0.256617 0.452502
181 1 0.93163 0.140932 0.4274
321 1 0.0142688 0.0914824 0.467481
710 2 0.141944 0.299788 0.398809
242 1 0.292178 0.392757 0.426317
265 1 0.0292514 0.281889 0.453373
688 2 0.304275 0.527393 0.3985
714 2 0.413113 0.383248 0.456834
239 1 0.546462 0.353947 0.435947
689 2 0.688764 0.333364 0.460538
739 2 0.543313 0.376414 0.472322
240 1 0.73866 0.492718 0.433231
734 2 0.594601 0.178186 0.470914
192 1 0.00155729 0.411894 0.438312
709 2 0.845154 0.392433 0.423732
215 1 0.868604 0.39183 0.477914
203 1 0.220712 0.668857 0.420977
745 2 0.0443337 0.743395 0.431341
222 1 0.0355514 0.559838 0.432695
296 1 0.170084 0.507869 0.413064
695 2 0.172826 0.603349 0.455877
193 1 0.490702 0.519175 0.410844
237 1 0.358036 0.584244 0.434528
204 1 0.523789 0.65829 0.44591
722 2 0.390619 0.725536 0.453949
723 2 0.656169 0.616602 0.41836
721 2 0.572696 0.502835 0.443371
663 2 0.714745 0.602264 0.462141
737 2 0.810541 0.708795 0.402929
767 2 0.879701 0.525009 0.445422
246 1 0.912748 0.642593 0.423849
685 2 0.714297 0.461026 0.479973
774 2 0.834115 0.688593 0.46573
212 1 0.213084 0.956164 0.404064
257 1 0.098324 0.865552 0.456273
681 2 0.0586397 0.911314 0.417548
755 2 0.959623 0.816056 0.467002
746 2 0.247903 0.806484 0.428312
707 2 0.34434 0.917067 0.424494
208 1 0.470381 0.825456 0.427174
708 2 0.253318 0.998941 0.451507
683 2 0.556305 0.959472 0.412681
703 2 0.735791 0.877833 0.414926
228 1 0.652282 0.862166 0.447886
229 1 0.735462 0.73791 0.434957
209 1 0.889255 0.787441 0.429327
224 1 0.797652 0.878738 0.458065
749 2 0.822794 0.997735 0.415935
251 1 0.919996 0.94894 0.44326
732 2 0.206673 0.299509 0.483975
753 2 0.298851 0.141635 0.484277
735 2 0.155689 0.16871 0.464435
763 2 0.103936 0.273184 0.524921
264 1 0.539603 0.119676 0.507118
731 2 0.366941 0.0937344 0.529057
778 2 0.601113 0.286989 0.500918
255 1 0.44184 0.961039 0.49178
804 2 0.711874 0.150258 0.503445
711 2 0.993717 0.208485 0.489075
250 1 0.750607 0.00354321 0.485995
284 1 0.129166 0.157785 0.498522
210 1 0.850323 0.149156 0.492218
759 2 0.701353 0.250547 0.537491
260 1 0.894733 0.275563 0.514897
272 1 0.133881 0.397835 0.462441
262 1 0.0366411 0.506449 0.474442
765 2 0.0257631 0.346684 0.488013
747 2 0.203762 0.438917 0.524125
742 2 0.329874 0.242621 0.515647
712 2 0.281712 0.488354 0.458133
234 1 0.350137 0.241994 0.453377
738 2 0.441745 0.278517 0.492152
792 2 0.342282 0.395815 0.493206
259 1 0.458262 0.36699 0.523685
230 1 0.76814 0.297686 0.49616
779 2 0.442341 0.546356 0.477564
219 1 0.593099 0.449727 0.508925
740 2 0.876555 0.475635 0.518417
761 2 0.821338 0.366686 0.548887
206 1 0.00794503 0.64601 0.459567
762 2 0.0400836 0.484565 0.513824
273 1 0.0443634 0.628797 0.534549
267 1 0.166701 0.562506 0.496921
766 2 0.218796 0.720184 0.509991
713 2 0.296125 0.629956 0.483778
218 1 0.507655 0.706623 0.484593
269 1 0.454876 0.52608 0.520094
744 2 0.725554 0.579412 0.51518
694 2 0.600701 0.563531 0.482256
748 2 0.596276 0.659497 0.514351
300 1 0.789153 0.716621 0.499173
245 1 0.873315 0.575127 0.485698
314 1 0.80159 0.667795 0.538622
780 2 0.112165 0.0077269 0.520167
278 1 0.119605 0.737164 0.481171
726 2 0.137067 0.0125587 0.481286
727 2 0.511535 0.861623 0.465045
741 2 0.25537 0.808825 0.464219
266 1 0.29402 0.95569 0.528668
733 2 0.30273 0.990572 0.49069
227 1 0.368775 0.810209 0.49074
279 1 0.533622 0.835503 0.508318
668 2 0.630071 0.731278 0.464615
243 1 0.841331 0.926931 0.510914
772 2 0.689645 0.861724 0.494039
823 2 0.610191 0.972095 0.521331
308 1 0.767125 0.0390806 0.524134
701 2 0.962243 0.681414 0.500485
799 2 0.919027 0.976665 0.483412
770 2 0.892364 0.793817 0.529411
793 2 0.0303054 0.898232 0.494202
287 1 0.202939 0.0486023 0.55031
256 1 0.0549009 0.0183118 0.564673
788 2 0.149875 0.228717 0.590683
757 2 0.225434 0.197475 0.554716
802 2 0.217484 0.046477 0.589739
310 1 0.380856 0.180191 0.575192
809 2 0.492992 0.0785507 0.55635
289 1 0.484339 0.222767 0.534116
277 1 0.562304 0.194711 0.572446
294 1 0.759974 0.190819 0.56748
789 2 0.644204 0.013876 0.573108
824 2 0.637526 0.10135 0.53811
290 1 0.963698 0.0800234 0.510938
791 2 0.0296122 0.170972 0.553284
280 1 0.90005 0.0784964 0.558903
298 1 0.221541 0.526727 0.580995
286 1 0.0189707 0.311809 0.587809
295 1 0.147276 0.378593 0.570023
299 1 0.0580791 0.515884 0.560978
728 2 0.27811 0.342573 0.549903
764 2 0.438393 0.357406 0.565248
771 2 0.283713 0.253083 0.611916
270 1 0.584382 0.373848 0.547692
285 1 0.520796 0.503097 0.562152
366 1 0.731209 0.506142 0.556809
790 2 0.901847 0.252077 0.565542
274 1 0.00398743 0.35447 0.546571
320 1 0.708916 0.325531 0.579252
315 1 0.920352 0.426233 0.579217
775 2 0.209673 0.600553 0.540516
797 2 0.129363 0.657078 0.569322
249 1 0.35599 0.641166 0.517322
263 1 0.344932 0.48466 0.545282
293 1 0.302739 0.662502 0.56918
248 1 0.373515 0.524518 0.582079
769 2 0.438986 0.618183 0.549847
254 1 0.618987 0.631736 0.556112
226 1 0.616119 0.536316 0.594052
783 2 0.672374 0.790118 0.58239
241 1 0.902096 0.546326 0.549749
750 2 0.817452 0.665506 0.578506
754 2 0.0672525 0.796776 0.530815
297 1 0.981174 0.668742 0.578368
752 2 0.179512 0.855975 0.503514
751 2 0.171629 0.89844 0.561229
798 2 0.195239 0.771534 0.548402
796 2 0.352111 0.945495 0.563791
743 2 0.416933 0.779674 0.570242
258 1 0.357145 0.789042 0.527766
348 1 0.501159 0.972409 0.581457
309 1 0.455956 0.932596 0.532365
704 2 0.702054 0.81874 0.531588
322 1 0.512777 0.76025 0.540019
282 1 0.574328 0.877887 0.55783
306 1 0.772279 0.948962 0.557539
730 2 0.965069 0.935077 0.540152
350 1 0.837276 0.824037 0.570801
291 1 0.147932 0.235705 0.630802
302 1 0.100074 0.0283181 0.623226
760 2 0.439513 0.0951954 0.604108
758 2 0.481822 0.96621 0.636808
756 2 0.288253 0.113271 0.639399
372 1 0.487876 0.155534 0.634249
335 1 0.607752 0.269173 0.608491
311 1 0.7575 0.250298 0.619372
784 2 0.719704 0.107881 0.602157
776 2 0.878407 0.170121 0.604682
781 2 0.035962 0.145046 0.596098
305 1 0.841002 0.157922 0.641772
271 1 0.000788333 0.0150498 0.659874
850 2 0.850213 0.989047 0.617323
349 1 0.128706 0.38083 0.60542
817 2 0.991693 0.324296 0.624939
292 1 0.246867 0.435029 0.634296
832 2 0.308236 0.371172 0.586796
268 1 0.43785 0.271548 0.602443
787 2 0.289362 0.269189 0.650056
319 1 0.485988 0.464697 0.602014
834 2 0.387046 0.381392 0.625705
794 2 0.559166 0.362132 0.584528
773 2 0.743757 0.391878 0.64237
313 1 0.664971 0.404037 0.610943
365 1 0.603165 0.325201 0.64627
331 1 0.866266 0.334961 0.607748
811 2 0.946141 0.477111 0.614266
845 2 0.805234 0.519751 0.602142
816 2 0.898479 0.286473 0.653632
341 1 0.102681 0.549715 0.602421
342 1 0.348298 0.522847 0.623269
328 1 0.23391 0.617446 0.611991
814 2 0.0966308 0.729192 0.601988
253 1 0.368646 0.680213 0.608434
768 2 0.486475 0.603001 0.622253
818 2 0.591516 0.714784 0.62575
317 1 0.325503 0.687049 0.648963
303 1 0.637186 0.558387 0.636086
325 1 0.713682 0.688739 0.60623
288 1 0.512199 0.688127 0.588658
795 2 0.988251 0.595215 0.637923
813 2 0.816042 0.574123 0.642152
825 2 0.883837 0.68074 0.613375
283 1 0.252064 0.764631 0.592527
800 2 0.151262 0.883769 0.595977
785 2 0.00115093 0.826249 0.573771
822 2 0.111429 0.881851 0.634045
326 1 0.445186 0.806418 0.644999
842 2 0.305401 0.944377 0.605782
368 1 0.230449 0.777055 0.629484
826 2 0.690175 0.969503 0.659065
777 2 0.495918 0.840582 0.604642
324 1 0.609141 0.888084 0.632234
808 2 0.725084 0.922174 0.593134
374 1 0.587273 0.0514961 0.612306
281 1 0.940541 0.977148 0.584769
843 2 0.800144 0.817674 0.611128
865 2 0.962317 0.860821 0.610774
810 2 0.997246 0.166408 0.63571
347 1 0.14917 0.109266 0.654242
332 1 0.0773465 0.112908 0.687115
829 2 0.213529 0.198335 0.681934
820 2 0.236835 0.0325046 0.685018
276 1 0.378292 0.960225 0.663923
833 2 0.407308 0.129727 0.66204
827 2 0.466222 0.0450649 0.693457
803 2 0.542392 0.0471191 0.660269
301 1 0.656992 0.152668 0.644986
329 1 0.609874 0.109679 0.713076
846 2 0.912265 0.165511 0.68525
304 1 0.726912 0.108107 0.680705
849 2 0.8526 0.0290936 0.662926
358 1 0.764119 0.983296 0.70716
357 1 0.0339906 0.472993 0.651949
812 2 0.213476 0.464234 0.669717
807 2 0.162468 0.3322 0.660604
861 2 0.0495665 0.44938 0.693905
377 1 0.0373392 0.258671 0.675452
782 2 0.360336 0.439678 0.668207
333 1 0.453458 0.304997 0.658768
323 1 0.363699 0.279571 0.690209
837 2 0.556798 0.35954 0.71026
364 1 0.425538 0.536173 0.705122
330 1 0.571463 0.185142 0.672078
339 1 0.719696 0.32424 0.702427
376 1 0.719887 0.262404 0.666908
338 1 0.533797 0.444329 0.674608
840 2 0.895722 0.440279 0.648683
871 2 0.859329 0.39416 0.696219
801 2 0.144783 0.572644 0.640305
387 1 0.174795 0.728844 0.669242
891 2 0.0734067 0.622375 0.674346
862 2 0.322246 0.578876 0.676526
867 2 0.425993 0.738425 0.689661
847 2 0.470612 0.583875 0.659929
340 1 0.715887 0.484927 0.67792
844 2 0.591896 0.531123 0.700226
343 1 0.642549 0.662318 0.666343
848 2 0.915847 0.549606 0.683355
838 2 0.791004 0.654306 0.685405
345 1 0.906734 0.498069 0.722694
875 2 0.894848 0.704307 0.713948
821 2 0.131224 0.94117 0.670287
815 2 0.0615046 0.755389 0.647506
841 2 0.199116 0.886744 0.702365
855 2 0.98275 0.862695 0.670489
836 2 0.0430763 0.760635 0.69614
396 1 0.0752951 0.964883 0.708879
252 1 0.252196 0.953701 0.644799
872 2 0.361455 0.93998 0.705112
346 1 0.296594 0.818829 0.669226
874 2 0.55595 0.716981 0.708843
839 2 0.75741 0.752471 0.648244
819 2 0.526458 0.843598 0.67197
316 1 0.622876 0.952369 0.691503
873 2 0.664834 0.814733 0.690012
860 2 0.910366 0.691364 0.662254
355 1 0.859794 0.876732 0.645977
423 1 0.822434 0.860074 0.688911
857 2 0.263582 0.306204 0.729196
876 2 0.211438 0.155563 0.720562
806 2 0.0799414 0.326804 0.75588
805 2 0.0765379 0.0590005 0.740091
881 2 0.249025 0.00990369 0.728239
786 2 0.344884 0.137919 0.705343
854 2 0.34997 0.155126 0.746084
353 1 0.465001 0.0502586 0.732853
359 1 0.418891 0.313087 0.723385
334 1 0.615113 0.995236 0.734875
389 1 0.63251 0.105279 0.763188
869 2 0.792639 0.100309 0.736048
895 2 0.682526 0.986155 0.793537
853 2 0.865652 0.208474 0.755362
864 2 0.943004 0.0294783 0.699656
352 1 0.954871 0.158385 0.729536
416 1 0.155674 0.354183 0.700218
828 2 0.225719 0.4564 0.755164
361 1 0.0811418 0.454555 0.733301
851 2 0.312203 0.455739 0.717524
393 1 0.361433 0.350625 0.755639
408 1 0.370614 0.559867 0.762824
835 2 0.497522 0.201412 0.70665
307 1 0.538434 0.22439 0.749751
360 1 0.476857 0.50882 0.738505
889 2 0.588758 0.370709 0.747294
414 1 0.696822 0.240963 0.734788
390 1 0.820603 0.212263 0.710574
863 2 0.0128392 0.308367 0.718123
859 2 0.796575 0.352625 0.734501
386 1 0.955518 0.591193 0.754236
930 2 0.741008 0.378461 0.771168
362 1 0.169648 0.575488 0.697608
831 2 0.225942 0.729567 0.706675
312 1 0.114229 0.583977 0.755124
318 1 0.447519 0.656154 0.730025
400 1 0.479372 0.66719 0.771949
373 1 0.310573 0.620104 0.720767
370 1 0.767531 0.536651 0.713041
893 2 0.65203 0.541968 0.747226
898 2 0.677675 0.645915 0.710624
404 1 0.760244 0.802422 0.720667
424 1 0.0197891 0.59259 0.714704
473 1 0.770888 0.676826 0.745035
344 1 0.0151647 0.707863 0.774218
398 1 0.0356375 0.749394 0.737114
896 2 0.117529 0.889694 0.737366
367 1 0.220399 0.694596 0.747299
371 1 0.346759 0.786181 0.72882
886 2 0.372623 0.941226 0.751636
430 1 0.46013 0.809804 0.762268
897 2 0.293539 0.832591 0.765385
327 1 0.50972 0.862133 0.715882
909 2 0.625111 0.859554 0.750299
900 2 0.614169 0.703364 0.743517
356 1 0.923324 0.975991 0.74185
354 1 0.778098 0.93811 0.753303
379 1 0.941878 0.882446 0.709311
406 1 0.976751 0.867938 0.781631
899 2 0.884984 0.800263 0.747538
830 2 0.1953 0.183443 0.756781
910 2 0.16421 0.310038 0.785765
384 1 0.0167034 0.19101 0.769019
413 1 0.11843 0.0951024 0.7837
412 1 0.245329 0.17504 0.802814
852 2 0.257132 0.0420704 0.767028
882 2 0.409202 0.0505164 0.780353
369 1 0.392699 0.237409 0.787919
941 2 0.407745 0.177152 0.826412
382 1 0.527418 0.0682862 0.816194
924 2 0.535646 0.231842 0.792171
460 1 0.733022 0.200488 0.783616
920 2 0.68173 0.120904 0.811332
880 2 0.952654 0.104215 0.805233
877 2 0.000942269 0.014166 0.772453
879 2 0.855332 0.0729342 0.76966
922 2 0.819542 0.0452922 0.819714
990 2 0.895898 0.259492 0.800931
932 2 0.0732115 0.227484 0.815567
363 1 0.172779 0.446003 0.804872
443 1 0.350019 0.424564 0.7907
429 1 0.406658 0.433991 0.83474
884 2 0.601784 0.360701 0.791619
887 2 0.501408 0.448107 0.782413
391 1 0.628111 0.478252 0.819047
385 1 0.926499 0.348532 0.754825
381 1 0.899352 0.430594 0.786675
858 2 0.22555 0.581339 0.781824
441 1 0.0745295 0.514367 0.788959
497 1 0.946276 0.763054 0.809644
913 2 0.209449 0.647798 0.818646
917 2 0.346231 0.71835 0.786614
943 2 0.35878 0.638792 0.832395
933 2 0.466691 0.545897 0.810828
375 1 0.688862 0.690503 0.782023
410 1 0.799745 0.513685 0.766919
866 2 0.501984 0.703682 0.814345
449 1 0.586378 0.562675 0.777938
870 2 0.677475 0.741812 0.815132
885 2 0.831871 0.691043 0.779461
422 1 0.760166 0.57425 0.801324
411 1 0.94405 0.589134 0.809196
942 2 0.244385 0.801255 0.808674
392 1 0.141007 0.931019 0.77315
401 1 0.158141 0.729789 0.784151
916 2 0.046784 0.956433 0.807301
476 1 0.231974 0.948301 0.802518
383 1 0.405097 0.873251 0.798841
923 2 0.462893 0.886196 0.844321
397 1 0.546604 0.959975 0.775493
337 1 0.564529 0.786566 0.787539
919 2 0.58178 0.91322 0.818626
856 2 0.821441 0.671864 0.833559
425 1 0.843857 0.942862 0.785689
972 2 0.722755 0.838338 0.784786
378 1 0.15272 0.0787618 0.827033
921 2 0.0032367 0.0988078 0.837256
388 1 0.266585 0.0348574 0.851252
949 2 0.535718 0.216518 0.857487
380 1 0.378049 0.0085293 0.821941
405 1 0.656786 0.263834 0.827846
481 1 0.479344 0.0575565 0.856415
975 2 0.696564 0.188286 0.867007
499 1 0.899682 0.171165 0.862388
888 2 0.837549 0.247046 0.890578
976 2 0.810849 0.216164 0.832497
431 1 0.106235 0.404424 0.832604
426 1 0.0394425 0.422691 0.87538
901 2 0.274701 0.508527 0.829588
878 2 0.222583 0.199997 0.84926
892 2 0.464668 0.327399 0.821693
984 2 0.284309 0.310033 0.825145
445 1 0.471527 0.346844 0.871076
418 1 0.233354 0.384058 0.854855
440 1 0.368317 0.239799 0.862062
883 2 0.75549 0.387274 0.854535
935 2 0.591829 0.374113 0.846472
960 2 0.640461 0.438533 0.878771
462 1 0.558932 0.226962 0.89504
351 1 0.0239268 0.361409 0.804749
964 2 0.797302 0.369003 0.811274
417 1 0.950607 0.369247 0.847453
944 2 0.822467 0.497064 0.83022
966 2 0.831768 0.408417 0.886269
940 2 0.0747784 0.546822 0.837934
937 2 0.216601 0.592363 0.862629
407 1 0.0591992 0.597669 0.875119
912 2 0.0767973 0.64527 0.806061
22 1 0.0341086 0.788943 0.853219
894 2 0.369598 0.634618 0.868973
939 2 0.524391 0.668935 0.857831
925 2 0.363907 0.786391 0.881661
394 1 0.680088 0.624916 0.835481
915 2 0.558861 0.512893 0.851791
931 2 0.647276 0.633421 0.882335
435 1 0.929602 0.507525 0.861166
902 2 0.951341 0.66285 0.854414
890 2 0.788265 0.570656 0.866051
395 1 0.840801 0.669398 0.899157
911 2 0.0910244 0.80825 0.816971
452 1 0.256324 0.735266 0.851986
968 2 0.209696 0.833936 0.876851
428 1 0.14252 0.90252 0.846271
434 1 0.299358 0.900808 0.84965
934 2 0.29633 0.0471978 0.894712
868 2 0.634313 0.80938 0.857039
904 2 0.62805 0.930402 0.883418
914 2 0.52386 0.735924 0.893703
399 1 0.672933 0.0218277 0.839703
403 1 0.383813 0.964545 0.875247
459 1 0.795455 0.846313 0.88935
336 1 0.781776 0.723731 0.868589
420 1 0.912768 0.886284 0.828652
421 1 0.746343 0.867836 0.835804
451 1 0.81965 0.971843 0.856391
457 1 0.117974 0.0879736 0.86576
483 1 0.228528 0.174975 0.887439
995 2 0.158622 0.0478396 0.909375
996 2 0.141178 0.183068 0.921772
955 2 0.070884 0.269766 0.861147
928 2 0.419774 0.133313 0.885546
2 1 0.53141 0.139938 0.929101
427 1 0.413783 0.0085475 0.920071
446 1 0.345406 0.154587 0.92203
953 2 0.772039 0.0679665 0.881651
409 1 0.597387 0.075796 0.881513
20 1 0.566026 0.989574 0.928544
973 2 0.582553 0.297643 0.929319
479 1 0.937703 0.211028 0.932605
954 2 0.0157825 0.153958 0.899107
480 1 0.770192 0.228464 0.924132
75 1 0.884263 0.100383 0.906118
436 1 0.166455 0.472907 0.890039
25 1 0.143538 0.304598 0.906788