ITEM: TIMESTEP
12620
ITEM: NUMBER OF ATOMS
1000
ITEM: BOX BOUNDS pp pp pp
0.0000000000000000e+00 6.2996052494743662e+00
0.0000000000000000e+00 6.2996052494743662e+00
0.0000000000000000e+00 2.5198420997897465e+01
ITEM: ATOMS id type xs ys zs
46 1 0.0364235 0.104016 0.0147989
13 1 0.0962698 0.149199 0.0482097
16 1 0.0442814 0.259525 0.979934
528 2 0.201542 0.0669036 0.0601414
918 2 0.17148 0.972995 0.0220302
28 1 0.215984 0.216213 0.0298743
498 1 0.338414 0.0535827 0.0394253
8 1 0.362686 0.210022 0.00853709
17 1 0.587393 0.212222 0.0536345
529 2 0.709599 0.273717 0.0291174
571 2 0.494382 0.159636 0.0281596
486 1 0.0603597 0.170074 0.0825614
507 2 0.857626 0.00215307 0.0703332
27 1 0.780436 0.137903 0.0361511
71 1 0.920027 0.129121 0.0518983
510 2 0.0979858 0.354958 0.0113298
532 2 0.0277418 0.556173 0.0308201
977 2 0.149111 0.291835 0.060149
85 1 0.18383 0.459067 0.0345169
581 2 0.274725 0.347049 0.0446355
957 2 0.0800768 0.471945 0.0642253
454 1 0.338892 0.404808 0.00526395
489 1 0.334143 0.559446 0.0113905
512 2 0.428624 0.389392 0.0404974
573 2 0.490664 0.305304 0.0109292
999 2 0.644461 0.500505 0.00353967
982 2 0.838188 0.297107 0.0468797
552 2 0.572212 0.538337 0.0376366
58 1 0.495038 0.484288 0.00788889
544 2 0.990094 0.26592 0.053477
485 1 0.946127 0.404402 0.0461175
73 1 0.751542 0.42791 0.0350312
987 2 0.0892099 0.681099 0.997644
86 1 0.848077 0.548802 0.0424565
49 1 0.921905 0.659893 0.020989
63 1 0.423354 0.584852 0.0387284
963 2 0.236274 0.617849 0.0395771
514 2 0.362376 0.799343 0.0544157
506 2 0.639513 0.758467 0.00785275
33 1 0.67728 0.707763 0.0527228
947 2 0.533798 0.795282 0.0423281
31 1 0.719447 0.916067 0.996618
989 2 0.731244 0.617037 0.0250798
961 2 0.909162 0.584455 0.979977
545 2 0.807372 0.767093 0.00976386
520 2 0.80582 0.589189 0.0796531
37 1 0.944912 0.668448 0.0637105
525 2 0.175014 0.869656 0.053443
524 2 0.0378973 0.806691 0.0280515
549 2 0.926674 0.957724 0.025985
18 1 0.310308 0.897906 0.0219873
9 1 0.355957 0.714578 0.0224505
12 1 0.428264 0.927319 0.04509
3 1 0.279922 0.0543246 0.00309595
95 1 0.674174 0.862632 0.0323335
29 1 0.606075 0.000897575 0.0268871
548 2 0.568823 0.921138 0.0599496
21 1 0.821058 0.702642 0.0459865
468 1 0.78284 0.961665 0.0335255
560 2 0.276541 0.0270503 0.0969549
1 1 0.986915 0.219403 0.123214
57 1 0.224204 0.116609 0.125388
82 1 0.249505 0.300575 0.128001
48 1 0.478991 0.0954203 0.0691351
52 1 0.261999 0.223753 0.085616
92 1 0.379677 0.145148 0.100507
565 2 0.685581 0.0439812 0.123152
516 2 0.69221 0.0204794 0.0707248
96 1 0.610179 0.133522 0.0903608
100 1 0.936867 0.0723808 0.102699
598 2 0.789338 0.112858 0.094293
41 1 0.899166 0.223672 0.0853029
11 1 0.143666 0.264253 0.10146
985 2 0.194553 0.416262 0.0812839
590 2 0.950825 0.363205 0.11824
526 2 0.383601 0.216893 0.0594229
7 1 0.310549 0.485094 0.0547334
527 2 0.366664 0.377046 0.0761607
600 2 0.598428 0.392956 0.0246866
503 2 0.499563 0.275451 0.0849766
521 2 0.701419 0.261897 0.0808397
79 1 0.563177 0.420998 0.105184
558 2 0.497847 0.474184 0.0690981
77 1 0.941229 0.50569 0.0876456
35 1 0.818759 0.392018 0.0751441
981 2 0.0181134 0.346616 0.082277
533 2 0.722753 0.42101 0.108338
551 2 0.291793 0.626338 0.106092
65 1 0.210544 0.564286 0.0767255
517 2 0.0674695 0.613941 0.0905491
70 1 0.0604707 0.787011 0.0890143
523 2 0.211237 0.769913 0.0807027
547 2 0.443146 0.572382 0.0951257
56 1 0.324199 0.652673 0.0701281
537 2 0.431227 0.755189 0.0889607
998 2 0.514147 0.647625 0.0658254
519 2 0.564438 0.693865 0.126865
511 2 0.664947 0.431301 0.070233
15 1 0.600139 0.580528 0.0920445
50 1 0.637865 0.517391 0.13607
64 1 0.758727 0.615007 0.121418
40 1 0.914554 0.658563 0.0995331
997 2 0.101367 0.703973 0.054332
967 2 0.0549874 0.957765 0.0578671
546 2 0.123596 0.0567833 0.10097
23 1 0.302302 0.93879 0.0675744
559 2 0.437264 0.969939 0.0833592
577 2 0.500496 0.863689 0.113751
597 2 0.307519 0.781803 0.129818
971 2 0.596627 0.738948 0.0857721
543 2 0.531302 0.0223226 0.108838
513 2 0.640841 0.913509 0.0918638
587 2 0.706391 0.754662 0.117473
534 2 0.736492 0.869852 0.0675709
39 1 0.947555 0.852314 0.0586054
502 2 0.788367 0.754314 0.085386
575 2 0.838996 0.92815 0.0998226
566 2 0.984295 0.155131 0.158441
101 1 0.0569848 0.287932 0.182453
583 2 0.260862 0.0365475 0.155786
93 1 0.150522 0.218234 0.150348
589 2 0.333838 0.185292 0.143854
599 2 0.558266 0.129734 0.136355
99 1 0.706225 0.160989 0.160594
34 1 0.595416 0.262516 0.117575
80 1 0.893596 0.262409 0.151835
554 2 0.769132 0.993301 0.160115
26 1 0.829342 0.200111 0.189886
576 2 0.814049 0.123314 0.133223
83 1 0.0475557 0.405019 0.146611
125 1 0.0609021 0.475159 0.111589
531 2 0.37531 0.442466 0.186214
538 2 0.315464 0.478256 0.106998
561 2 0.352128 0.421201 0.143823
78 1 0.397915 0.307496 0.117081
62 1 0.498498 0.400999 0.138504
76 1 0.508298 0.268886 0.147152
604 2 0.681678 0.358384 0.142153
557 2 0.574096 0.417016 0.170415
671 2 0.61927 0.269751 0.175804
89 1 0.782362 0.293575 0.114787
582 2 0.89695 0.525036 0.196804
564 2 0.885987 0.423763 0.164543
553 2 0.978799 0.648477 0.132405
91 1 0.143122 0.654533 0.126072
122 1 0.0992157 0.735697 0.167286
38 1 0.434516 0.707256 0.151066
141 1 0.300541 0.560105 0.155873
97 1 0.23994 0.720022 0.15759
509 2 0.458372 0.541172 0.132235
116 1 0.410148 0.586854 0.179926
14 1 0.551147 0.58323 0.173822
66 1 0.653938 0.690841 0.156805
139 1 0.578606 0.8384 0.153893
10 1 0.862532 0.795783 0.120011
94 1 0.741367 0.55561 0.185013
594 2 0.872569 0.504697 0.125715
111 1 0.981388 0.554816 0.160765
615 2 0.860292 0.671916 0.160484
44 1 0.0550103 0.0306893 0.136237
550 2 0.0712476 0.8014 0.128554
42 1 0.00185256 0.918879 0.100012
541 2 0.966587 0.00362333 0.167737
542 2 0.142358 0.918548 0.108314
555 2 0.317912 0.887131 0.103354
53 1 0.255775 0.86738 0.161868
88 1 0.401714 0.871647 0.154714
536 2 0.385253 0.00971069 0.177166
59 1 0.733189 0.903311 0.127092
90 1 0.546303 0.00420754 0.161845
539 2 0.368624 0.989506 0.130967
98 1 0.954891 0.823682 0.157638
60 1 0.891912 0.991433 0.133686
540 2 0.78071 0.830097 0.159158
610 2 0.0884446 0.288703 0.232003
118 1 0.0903196 0.0760912 0.183633
107 1 0.201504 0.367344 0.160949
128 1 0.120234 0.04372 0.22701
638 2 0.164788 0.214963 0.198523
74 1 0.314031 0.171625 0.182681
112 1 0.469795 0.153204 0.174475
110 1 0.471573 0.13119 0.219202
603 2 0.268483 0.0362294 0.232885
157 1 0.577089 0.0607988 0.196738
55 1 0.725428 0.0794188 0.21265
105 1 0.843551 0.0437608 0.187256
109 1 0.999076 0.172025 0.204234
605 2 0.836266 0.147459 0.236207
595 2 0.194336 0.462036 0.133185
54 1 0.0546523 0.460688 0.187139
535 2 0.0400389 0.44924 0.226218
651 2 0.230012 0.404598 0.229531
556 2 0.332515 0.305264 0.169787
586 2 0.483836 0.385692 0.222014
611 2 0.292852 0.300268 0.206133
84 1 0.469715 0.28991 0.196487
608 2 0.461716 0.535406 0.212934
607 2 0.589931 0.219025 0.211994
580 2 0.92593 0.372796 0.196657
150 1 0.772836 0.33463 0.180062
81 1 0.782904 0.439827 0.213549
585 2 0.750446 0.273895 0.218903
622 2 0.100308 0.583216 0.21875
606 2 0.237614 0.560743 0.231096
632 2 0.134281 0.576143 0.16993
87 1 0.212306 0.465341 0.194904
591 2 0.275925 0.749287 0.226319
72 1 0.268896 0.627834 0.192542
570 2 0.443892 0.706557 0.215669
635 2 0.651861 0.385736 0.204475
563 2 0.772999 0.712196 0.192143
593 2 0.592313 0.668714 0.218789
104 1 0.995464 0.667404 0.18883
108 1 0.913911 0.819996 0.195281
665 2 0.743974 0.609945 0.222017
596 2 0.0455541 0.925663 0.198691
642 2 0.0254212 0.790343 0.218317
578 2 0.124627 0.921686 0.157445
616 2 0.18966 0.836547 0.205128
127 1 0.22681 0.994612 0.199493
613 2 0.366998 0.931147 0.217344
562 2 0.347448 0.783767 0.188225
134 1 0.50709 0.97476 0.22825
69 1 0.470211 0.892314 0.192796
68 1 0.645408 0.921719 0.180327
572 2 0.667993 0.908267 0.235956
144 1 0.599148 0.770799 0.18769
149 1 0.561576 0.81885 0.223319
117 1 0.857999 0.922593 0.232608
530 2 0.77343 0.891517 0.19794
648 2 0.865627 0.769661 0.238962
567 2 0.00770059 0.864899 0.253013
113 1 0.736323 0.772253 0.223894
602 2 0.276268 0.12883 0.27121
172 1 0.0227807 0.087508 0.281092
102 1 0.94989 0.0408109 0.217227
568 2 0.170659 0.883999 0.240229
176 1 0.150241 0.0064218 0.262212
137 1 0.335047 0.305556 0.289426
124 1 0.483574 0.0871827 0.262724
626 2 0.327262 0.161902 0.220516
612 2 0.436899 0.192599 0.295186
163 1 0.302176 0.133827 0.313236
579 2 0.59813 0.096618 0.242337
653 2 0.61172 0.138891 0.276423
151 1 0.737194 0.0628684 0.256957
623 2 0.714457 0.227672 0.252159
138 1 0.488359 0.233309 0.248665
667 2 0.995379 0.143448 0.241152
614 2 0.891658 0.0311755 0.25842
618 2 0.179426 0.445121 0.262016
569 2 0.19924 0.178193 0.242168
145 1 0.181217 0.274911 0.272926
135 1 0.985359 0.387871 0.260064
119 1 0.0344277 0.237979 0.267285
140 1 0.349804 0.290821 0.245947
636 2 0.323872 0.488122 0.277558
675 2 0.46225 0.403106 0.267661
114 1 0.432847 0.3133 0.321721
637 2 0.551828 0.292171 0.291582
670 2 0.623575 0.333302 0.239524
123 1 0.620563 0.432351 0.274807
601 2 0.920732 0.288679 0.233164
652 2 0.871261 0.227125 0.268949
634 2 0.901235 0.501689 0.233448
129 1 0.846626 0.439097 0.28093
161 1 0.80219 0.399161 0.248348
620 2 0.102717 0.685463 0.284127
609 2 0.0590846 0.557982 0.25833
142 1 0.457145 0.632831 0.251946
624 2 0.258921 0.645396 0.265252
617 2 0.387618 0.482687 0.243323
146 1 0.509718 0.543219 0.284252
164 1 0.516981 0.704925 0.286571
67 1 0.532078 0.501982 0.245141
592 2 0.689501 0.499705 0.244884
115 1 0.619801 0.633009 0.256411
630 2 0.732861 0.549146 0.285094
169 1 0.963984 0.643151 0.230285
629 2 0.851644 0.582942 0.266631
130 1 0.082936 0.360715 0.293578
639 2 0.836809 0.616639 0.309037
120 1 0.0979786 0.726589 0.249608
121 1 0.0617593 0.891028 0.28858
672 2 0.317435 0.872992 0.249679
247 1 0.177781 0.815233 0.281445
103 1 0.424666 0.782053 0.253074
153 1 0.415948 0.938835 0.275055
696 2 0.387604 0.805481 0.287063
131 1 0.56197 0.947031 0.26246
647 2 0.596908 0.800073 0.26513
625 2 0.719566 0.850279 0.286109
160 1 0.763254 0.710084 0.266663
588 2 0.864772 0.837059 0.276342
621 2 0.94797 0.712561 0.276081
175 1 0.020968 0.0125379 0.314285
646 2 0.179288 0.297764 0.313366
680 2 0.175681 0.0668449 0.298222
185 1 0.0475802 0.203049 0.307432
197 1 0.439038 0.130002 0.337836
183 1 0.475907 0.0352218 0.307836
706 2 0.340443 0.0215997 0.352948
640 2 0.593222 0.148724 0.317742
627 2 0.756039 0.0790333 0.335025
126 1 0.745988 0.169072 0.293044
662 2 0.715117 0.287399 0.323981
180 1 0.856939 0.276922 0.305029
679 2 0.890803 0.124456 0.314569
166 1 0.262058 0.420816 0.31108
106 1 0.162823 0.252288 0.351983
156 1 0.0645581 0.510073 0.344157
661 2 0.229612 0.518999 0.341597
201 1 0.301495 0.189829 0.347213
650 2 0.557589 0.266516 0.341547
167 1 0.473534 0.416834 0.356348
158 1 0.619388 0.428092 0.314522
584 2 0.914387 0.420267 0.322721
687 2 0.871642 0.298056 0.341787
699 2 0.725798 0.331747 0.283612
666 2 0.897557 0.541061 0.347362
641 2 0.150372 0.523369 0.295237
191 1 0.0286505 0.628953 0.324039
207 1 0.183816 0.642183 0.31815
720 2 0.287433 0.649753 0.343419
168 1 0.428682 0.481791 0.314432
697 2 0.317419 0.616114 0.300364
194 1 0.774211 0.459256 0.315797
619 2 0.613888 0.593234 0.312213
148 1 0.562284 0.543384 0.344966
170 1 0.736385 0.639661 0.339224
649 2 0.987274 0.495927 0.292691
700 2 0.94139 0.842249 0.342205
231 1 0.13608 0.922103 0.323811
147 1 0.56917 0.853282 0.300456
177 1 0.272886 0.944381 0.309108
691 2 0.254129 0.7807 0.319962
673 2 0.467893 0.727802 0.319959
702 2 0.260478 0.888357 0.351513
178 1 0.41777 0.910919 0.321585
658 2 0.587832 0.00455004 0.333168
628 2 0.81607 0.00698289 0.293294
154 1 0.666792 0.745746 0.314414
190 1 0.655351 0.00440952 0.287906
195 1 0.591849 0.702487 0.34354
152 1 0.0191866 0.789806 0.31304
155 1 0.818022 0.767654 0.312508
655 2 0.696819 0.91811 0.322549
674 2 0.872189 0.697671 0.343499
182 1 0.177612 0.082178 0.335116
677 2 0.116643 0.160991 0.379043
188 1 0.209468 0.036784 0.382594
136 1 0.446532 0.187785 0.374043
238 1 0.50346 0.0274961 0.366675
736 2 0.264807 0.211504 0.385034
213 1 0.345565 0.0673831 0.392278
162 1 0.3819 0.229992 0.408678
678 2 0.6357 0.133245 0.358563
187 1 0.548348 0.157518 0.399809
698 2 0.703477 0.105023 0.391392
686 2 0.638516 0.315541 0.373246
692 2 0.476509 0.383236 0.403203
133 1 0.795298 0.192392 0.359209
159 1 0.894124 0.998115 0.354382
179 1 0.0068449 0.190633 0.342971
657 2 0.300377 0.371671 0.348039
656 2 0.0248482 0.333197 0.335027
220 1 0.111758 0.387652 0.374173
186 1 0.0508256 0.451266 0.429749
710 2 0.137337 0.294271 0.401012
669 2 0.437103 0.377153 0.441842
132 1 0.334455 0.391554 0.385225
688 2 0.170804 0.480921 0.405044
143 1 0.592104 0.461403 0.378444
643 2 0.710549 0.418501 0.39931
718 2 0.594065 0.281952 0.424893
217 1 0.70563 0.426847 0.355991
244 1 0.883045 0.414733 0.405393
664 2 0.818885 0.342152 0.375244
165 1 0.992362 0.274732 0.387332
693 2 0.960912 0.439471 0.367872
199 1 0.163147 0.651739 0.362939
205 1 0.0917455 0.763787 0.400506
645 2 0.27992 0.554795 0.379292
171 1 0.382662 0.54727 0.349044
631 2 0.454287 0.550851 0.383273
221 1 0.286967 0.765813 0.37394
725 2 0.521551 0.835577 0.3936
198 1 0.646195 0.72024 0.380838
173 1 0.542693 0.66054 0.414725
676 2 0.740336 0.810802 0.353568
223 1 0.4806 0.698873 0.372075
723 2 0.690842 0.595875 0.39959
196 1 0.000578246 0.703452 0.364412
216 1 0.94238 0.565988 0.394884
644 2 0.769971 0.550128 0.369696
275 1 0.886703 0.552705 0.433019
737 2 0.844857 0.695783 0.38269
246 1 0.947694 0.69339 0.415987
225 1 0.10839 0.793131 0.345117
682 2 0.0610792 0.959025 0.361569
660 2 0.0559708 0.94791 0.400419
236 1 0.109542 0.0252329 0.425218
202 1 0.373378 0.786116 0.344171
232 1 0.372112 0.89803 0.383938
212 1 0.193199 0.876477 0.390154
174 1 0.661718 0.787344 0.420581
724 2 0.521252 0.87747 0.348205
719 2 0.716925 0.973169 0.361889
690 2 0.983653 0.056151 0.381102
654 2 0.844034 0.924354 0.322125
200 1 0.919097 0.885954 0.384028
211 1 0.174418 0.155021 0.417009
181 1 0.00352736 0.174284 0.419098
265 1 0.265384 0.198368 0.459218
735 2 0.210805 0.0371346 0.454281
235 1 0.339624 0.0891258 0.433594
233 1 0.511386 0.100431 0.434988
733 2 0.337945 0.980951 0.486778
633 2 0.636069 0.00352818 0.41353
684 2 0.699322 0.0486838 0.463838
716 2 0.655579 0.149146 0.430195
705 2 0.794562 0.115992 0.431874
189 1 0.847781 0.137914 0.392828
715 2 0.955232 0.0656632 0.447911
184 1 0.103337 0.274507 0.43575
192 1 0.0764007 0.419287 0.471928
296 1 0.204199 0.558619 0.437888
261 1 0.258394 0.287982 0.423634
242 1 0.324596 0.474842 0.419601
234 1 0.415314 0.243511 0.450579
239 1 0.550012 0.314954 0.461788
689 2 0.758974 0.295963 0.44857
721 2 0.638375 0.45631 0.463659
659 2 0.867941 0.247027 0.422777
240 1 0.766235 0.453006 0.437993
709 2 0.725642 0.259973 0.403427
215 1 0.810948 0.209546 0.475259
767 2 0.938117 0.346815 0.442434
203 1 0.0708021 0.600075 0.412823
745 2 0.106262 0.721863 0.436307
222 1 0.0016985 0.608083 0.449326
741 2 0.256882 0.760677 0.416378
237 1 0.381721 0.680478 0.403341
722 2 0.536908 0.745277 0.452132
712 2 0.218264 0.636657 0.405509
779 2 0.453417 0.558329 0.431603
713 2 0.300544 0.695164 0.446211
193 1 0.590303 0.443814 0.423459
204 1 0.651155 0.591599 0.434005
663 2 0.782549 0.595013 0.460936
229 1 0.807004 0.671626 0.427397
206 1 0.91178 0.704759 0.457761
681 2 0.930971 0.995001 0.416174
755 2 0.960468 0.841825 0.436697
746 2 0.145747 0.876315 0.436539
251 1 0.0591708 0.954379 0.461917
278 1 0.177786 0.715976 0.471891
214 1 0.445111 0.909589 0.460166
257 1 0.265072 0.956443 0.420514
707 2 0.406649 0.815153 0.426371
708 2 0.294025 0.846146 0.452205
208 1 0.454518 0.99849 0.414154
683 2 0.566924 0.895535 0.43454
228 1 0.687583 0.735939 0.459569
727 2 0.61249 0.884936 0.47634
717 2 0.765544 0.946056 0.433501
703 2 0.710114 0.879523 0.39059
209 1 0.837507 0.822885 0.416987
749 2 0.798889 0.985698 0.39583
321 1 0.108736 0.149932 0.457187
284 1 0.299423 0.118639 0.51187
290 1 0.930478 0.000998167 0.526386
753 2 0.388041 0.116018 0.474167
264 1 0.552707 0.0341002 0.493761
731 2 0.372408 0.969349 0.524039
742 2 0.304068 0.255254 0.494953
734 2 0.596105 0.168874 0.469503
778 2 0.546963 0.223982 0.538522
804 2 0.690596 0.153268 0.501094
250 1 0.830041 0.0558617 0.480644
210 1 0.99085 0.0856723 0.491543
260 1 0.881336 0.24135 0.514274
308 1 0.803965 0.0973834 0.518131
763 2 0.140098 0.281726 0.479445
711 2 0.972462 0.218151 0.460127
272 1 0.145935 0.392766 0.50576
791 2 0.0411509 0.274673 0.509483
714 2 0.448922 0.417001 0.478997
732 2 0.226007 0.413233 0.458538
747 2 0.299127 0.416137 0.494158
738 2 0.486187 0.287829 0.497371
269 1 0.543056 0.439562 0.522526
739 2 0.715643 0.309517 0.493411
685 2 0.78828 0.433789 0.480343
230 1 0.805747 0.383413 0.518789
765 2 0.958942 0.388329 0.529024
740 2 0.913907 0.356862 0.480375
695 2 0.124861 0.569558 0.475658
762 2 0.0329813 0.511504 0.507453
267 1 0.244934 0.492191 0.523026
766 2 0.201582 0.6337 0.512867
701 2 0.0292479 0.72253 0.487526
754 2 0.057485 0.672166 0.541196
792 2 0.346132 0.548563 0.459408
218 1 0.480301 0.599632 0.472988
227 1 0.382995 0.634327 0.500211
249 1 0.418969 0.506274 0.514793
744 2 0.702099 0.485378 0.514523
694 2 0.639637 0.575137 0.487288
748 2 0.551739 0.588812 0.517212
300 1 0.595455 0.746024 0.490127
668 2 0.75359 0.674233 0.493029
262 1 0.908655 0.54298 0.48365
245 1 0.815388 0.580438 0.519168
314 1 0.95809 0.640926 0.51696
726 2 0.17304 0.864621 0.479173
793 2 0.125703 0.78735 0.509519
255 1 0.426229 0.760463 0.479354
752 2 0.290653 0.803795 0.496803
729 2 0.70187 0.984587 0.511129
279 1 0.556176 0.926545 0.533604
772 2 0.778524 0.879607 0.471921
774 2 0.879722 0.757852 0.497138
224 1 0.899126 0.948994 0.46101
243 1 0.818361 0.898066 0.511862
799 2 0.989198 0.915383 0.499556
770 2 0.970876 0.797063 0.52815
704 2 0.673679 0.830061 0.517295
256 1 0.10201 0.952031 0.537011
757 2 0.156042 0.200887 0.518028
802 2 0.169457 0.0489486 0.575191
781 2 0.102542 0.183158 0.560147
287 1 0.266322 0.0559514 0.545873
310 1 0.315104 0.149483 0.580976
809 2 0.539965 0.0701226 0.579593
289 1 0.433596 0.118791 0.552897
277 1 0.699299 0.115857 0.578459
824 2 0.588714 0.0811184 0.528057
309 1 0.447568 0.123353 0.508449
759 2 0.715195 0.179195 0.541023
294 1 0.94089 0.177482 0.548901
789 2 0.828002 0.0341837 0.555708
280 1 0.0472841 0.0974251 0.527305
281 1 0.0157937 0.0365031 0.570321
788 2 0.22499 0.277553 0.586529
298 1 0.304268 0.41302 0.579059
286 1 0.0515363 0.312509 0.5656
295 1 0.215191 0.349656 0.550985
315 1 0.0748101 0.51615 0.551771
259 1 0.402665 0.319155 0.53384
728 2 0.282931 0.2197 0.537105
764 2 0.453219 0.257396 0.573816
285 1 0.52327 0.37921 0.555754
263 1 0.375401 0.452579 0.550661
219 1 0.65919 0.337394 0.536133
761 2 0.828136 0.32174 0.559474
270 1 0.620168 0.230109 0.57697
794 2 0.600138 0.350607 0.60053
845 2 0.72569 0.412796 0.591458
790 2 0.939612 0.413456 0.571987
299 1 0.251892 0.541008 0.557951
797 2 0.131671 0.639731 0.572398
775 2 0.314769 0.723734 0.561504
293 1 0.464735 0.425141 0.590912
769 2 0.392398 0.571284 0.581761
366 1 0.563225 0.576067 0.557847
254 1 0.677938 0.64699 0.53036
288 1 0.525413 0.695517 0.578117
273 1 0.850348 0.605907 0.575727
274 1 0.734757 0.493338 0.551765
241 1 0.694722 0.594215 0.590649
297 1 0.816968 0.887796 0.57993
350 1 0.708417 0.720836 0.569895
780 2 0.216196 0.965635 0.510179
751 2 0.142884 0.812881 0.548666
798 2 0.289982 0.810304 0.533429
796 2 0.270934 0.900887 0.565537
266 1 0.437698 0.826027 0.519159
743 2 0.371838 0.810064 0.58536
258 1 0.390203 0.614232 0.540163
348 1 0.430227 0.954761 0.556897
823 2 0.763931 0.868185 0.546953
322 1 0.53259 0.717418 0.53517
282 1 0.643249 9.49002e-05 0.556982
777 2 0.531417 0.859532 0.56883
306 1 0.848756 0.716066 0.544767
730 2 0.944705 0.870518 0.561912
785 2 0.975275 0.738861 0.56829
302 1 0.0845145 0.173956 0.596607
771 2 0.230285 0.131859 0.613249
760 2 0.359678 0.006227 0.592558
372 1 0.388995 0.144583 0.620046
374 1 0.667049 0.0812912 0.63621
301 1 0.804212 0.175406 0.633614
311 1 0.796542 0.27093 0.60176
784 2 0.872471 0.15161 0.579572
776 2 0.964368 0.268551 0.597002
305 1 0.800382 0.306786 0.663652
291 1 0.0829678 0.318813 0.613323
349 1 0.136219 0.424376 0.586957
292 1 0.280618 0.422719 0.622177
782 2 0.213456 0.27409 0.632902
248 1 0.460639 0.347706 0.627343
832 2 0.349649 0.285496 0.610169
268 1 0.548175 0.166808 0.608145
834 2 0.347317 0.332357 0.658251
342 1 0.516143 0.365741 0.666394
320 1 0.813423 0.39476 0.630534
335 1 0.688422 0.291529 0.628074
319 1 0.558229 0.21945 0.645303
817 2 0.921642 0.300695 0.634785
313 1 0.830096 0.520825 0.606229
331 1 0.945575 0.421957 0.608335
816 2 0.841631 0.440902 0.666962
811 2 0.0182302 0.578028 0.597208
341 1 0.211625 0.548205 0.597332
814 2 0.103225 0.674682 0.619544
357 1 0.0967788 0.467298 0.620314
328 1 0.444278 0.508596 0.623229
253 1 0.346672 0.68041 0.607183
226 1 0.584173 0.493815 0.608011
750 2 0.730678 0.682976 0.621852
768 2 0.563159 0.652559 0.616728
303 1 0.691851 0.541536 0.643223
325 1 0.604051 0.762706 0.64826
795 2 0.910003 0.800949 0.606826
825 2 0.902555 0.66774 0.618724
840 2 0.952177 0.524482 0.639642
850 2 0.0985202 0.0101383 0.615943
800 2 0.0896791 0.90001 0.575546
822 2 0.0739465 0.850577 0.611414
368 1 0.230701 0.760805 0.627749
252 1 0.233898 0.905821 0.600778
756 2 0.262558 0.00252299 0.63001
283 1 0.201462 0.776206 0.586442
326 1 0.458864 0.0117905 0.629026
842 2 0.367513 0.878326 0.622482
783 2 0.660889 0.856827 0.593096
758 2 0.593798 0.980314 0.610676
818 2 0.505443 0.80737 0.606921
324 1 0.591379 0.959616 0.649437
803 2 0.548834 0.0936883 0.665938
808 2 0.789193 0.0270684 0.604404
843 2 0.739857 0.867412 0.631177
865 2 0.925073 0.984577 0.616172
849 2 0.784803 0.0060598 0.64634
355 1 0.90603 0.87179 0.645568
347 1 0.161621 0.0954543 0.651278
332 1 0.943866 0.127738 0.664512
829 2 0.112613 0.108718 0.692674
807 2 0.0620829 0.197546 0.634701
787 2 0.308662 0.147761 0.651445
833 2 0.300068 0.0624392 0.699012
333 1 0.450036 0.197873 0.676181
827 2 0.687054 0.0746242 0.723572
304 1 0.701709 0.0382965 0.676452
330 1 0.537293 0.131625 0.709719
376 1 0.684295 0.186434 0.665201
390 1 0.673642 0.200453 0.704497
810 2 0.931937 0.150045 0.617524
846 2 0.80683 0.151673 0.685172
377 1 0.977868 0.277721 0.672317
812 2 0.202126 0.398584 0.66233
861 2 0.0385788 0.458905 0.670558
416 1 0.162918 0.237142 0.672258
424 1 0.151122 0.404049 0.703796
323 1 0.327467 0.235266 0.69529
338 1 0.447878 0.341078 0.703483
851 2 0.338476 0.452642 0.689967
365 1 0.663436 0.326213 0.680237
364 1 0.469214 0.503406 0.693403
339 1 0.571518 0.347872 0.725884
773 2 0.634401 0.486631 0.68466
871 2 0.858967 0.3058 0.708133
801 2 0.270224 0.598238 0.637668
387 1 0.209114 0.557676 0.679131
891 2 0.103384 0.572287 0.653009
317 1 0.413479 0.744468 0.638276
862 2 0.381826 0.490324 0.655017
900 2 0.372735 0.653008 0.6699
847 2 0.556376 0.585978 0.655394
340 1 0.658644 0.638523 0.700229
343 1 0.628262 0.792921 0.691013
813 2 0.731551 0.69541 0.665492
848 2 0.922184 0.562998 0.675409
838 2 0.821436 0.611024 0.697738
839 2 0.888195 0.710598 0.658299
860 2 0.0274829 0.726895 0.647613
271 1 0.0268671 0.998554 0.648822
867 2 0.313805 0.854283 0.658221
821 2 0.128998 0.871303 0.647765
815 2 0.181979 0.709225 0.665516
855 2 0.00477789 0.80359 0.676961
396 1 0.0345664 0.962498 0.684131
820 2 0.230913 0.978476 0.672109
276 1 0.554423 0.963296 0.69429
346 1 0.39586 0.976711 0.662738
874 2 0.37643 0.877977 0.693821
826 2 0.777882 0.865455 0.672666
358 1 0.690092 0.928997 0.703084
819 2 0.502801 0.833401 0.672675
423 1 0.761909 0.779758 0.705265
864 2 0.875449 0.986805 0.67564
805 2 0.231797 0.941555 0.718343
881 2 0.129071 0.970728 0.762117
830 2 0.0543152 0.162942 0.742874
786 2 0.255529 0.087661 0.731214
854 2 0.370923 0.0654476 0.762881
353 1 0.403602 0.145869 0.728459
835 2 0.300081 0.301669 0.731897
329 1 0.627397 0.231145 0.739796
869 2 0.81787 0.0113716 0.729974
853 2 0.795061 0.179931 0.729393
352 1 0.927932 0.0828556 0.703391
863 2 0.00350434 0.215868 0.705681
384 1 0.098198 0.00949343 0.730724
879 2 0.903857 0.116837 0.751482
857 2 0.230624 0.482566 0.729758
876 2 0.190336 0.212287 0.717351
828 2 0.217545 0.422952 0.780038
361 1 0.0317802 0.378057 0.728969
359 1 0.444623 0.464559 0.730532
307 1 0.309528 0.315007 0.771968
837 2 0.443245 0.31589 0.747959
844 2 0.644044 0.51914 0.730918
889 2 0.535184 0.426619 0.764607
414 1 0.660397 0.362582 0.759913
345 1 0.950997 0.416157 0.697901
859 2 0.753812 0.32864 0.732334
930 2 0.787838 0.236011 0.764914
385 1 0.937208 0.304487 0.753207
410 1 0.0507359 0.457515 0.772757
836 2 0.0600151 0.652227 0.687263
386 1 0.0605116 0.54368 0.710547
362 1 0.193898 0.632982 0.718016
312 1 0.0993125 0.585621 0.750043
408 1 0.367444 0.531996 0.758589
373 1 0.343997 0.589161 0.707816
367 1 0.31198 0.665166 0.744314
873 2 0.486786 0.647043 0.692374
360 1 0.524996 0.628903 0.728322
898 2 0.785238 0.667323 0.734789
375 1 0.621306 0.634734 0.760187
875 2 0.92971 0.745942 0.70828
370 1 0.817004 0.477432 0.716167
473 1 0.946791 0.61389 0.742722
841 2 0.142655 0.83482 0.697511
896 2 0.0802957 0.736099 0.727652
877 2 0.189756 0.839016 0.767234
872 2 0.362298 0.891772 0.73442
831 2 0.301436 0.750765 0.692054
318 1 0.418145 0.739157 0.722051
371 1 0.222672 0.786485 0.730826
886 2 0.45298 0.935103 0.769667
897 2 0.328047 0.802711 0.772425
316 1 0.491117 0.977141 0.732422
334 1 0.641441 0.909603 0.755292
430 1 0.506028 0.810918 0.753377
327 1 0.5074 0.851539 0.713016
909 2 0.649205 0.75531 0.727502
404 1 0.808662 0.833173 0.739919
398 1 0.960097 0.806978 0.74294
356 1 0.933074 0.959383 0.749118
379 1 0.945239 0.904725 0.713765
413 1 0.182833 0.14863 0.774481
412 1 0.389193 0.173664 0.838619
921 2 0.976603 0.0377168 0.815862
369 1 0.335043 0.210532 0.800453
941 2 0.433248 0.0237279 0.811855
924 2 0.475814 0.133876 0.780734
389 1 0.742264 0.082075 0.758878
882 2 0.577399 0.0725019 0.75275
382 1 0.535004 0.943177 0.833796
920 2 0.578798 0.0976253 0.815321
892 2 0.617389 0.179733 0.77767
880 2 0.0142951 0.0620479 0.772602
922 2 0.798301 0.141684 0.793711
990 2 0.921961 0.201842 0.782011
806 2 0.00544581 0.32019 0.787333
393 1 0.162126 0.340764 0.746125
910 2 0.261986 0.265911 0.840352
932 2 0.0567319 0.177842 0.806328
363 1 0.176021 0.300967 0.807396
441 1 0.103933 0.449512 0.807478
443 1 0.377161 0.435545 0.786685
984 2 0.38207 0.33951 0.828189
460 1 0.8081 0.339584 0.788436
884 2 0.52864 0.29036 0.786351
391 1 0.59545 0.537725 0.797639
449 1 0.756792 0.499569 0.762242
381 1 0.765948 0.507018 0.803453
351 1 0.929989 0.458441 0.797388
964 2 0.873478 0.274197 0.820232
944 2 0.993634 0.522057 0.834328
344 1 0.0666538 0.741289 0.767311
401 1 0.290456 0.716025 0.842334
912 2 0.111638 0.606819 0.795276
400 1 0.435435 0.666995 0.772397
858 2 0.272729 0.554714 0.788926
917 2 0.391993 0.704627 0.813485
915 2 0.326362 0.56751 0.824168
887 2 0.517465 0.62501 0.818524
422 1 0.786174 0.644278 0.776862
337 1 0.552459 0.723906 0.789914
972 2 0.699426 0.764361 0.765628
893 2 0.90192 0.463212 0.755192
411 1 0.924514 0.592544 0.782373
856 2 0.869876 0.651253 0.820585
406 1 0.0122638 0.903371 0.780816
942 2 0.243448 0.823693 0.811373
392 1 0.220461 0.693109 0.782361
916 2 0.162026 0.0250064 0.796963
911 2 0.0873052 0.781476 0.799969
852 2 0.287024 0.965604 0.779795
383 1 0.426413 0.856706 0.804728
895 2 0.671542 0.0473287 0.791811
397 1 0.611792 0.907245 0.799783
354 1 0.759866 0.877439 0.785513
899 2 0.890441 0.786993 0.781859
885 2 0.940116 0.788687 0.816073
421 1 0.725881 0.878981 0.826748
378 1 0.200439 0.135661 0.822329
388 1 0.273534 0.122073 0.863971
457 1 0.115843 0.0677838 0.865022
476 1 0.28916 0.997678 0.823322
380 1 0.389548 0.0068258 0.853432
440 1 0.424898 0.288862 0.865961
403 1 0.266504 0.988988 0.88722
928 2 0.395605 0.0907765 0.89172
429 1 0.527054 0.249475 0.823197
949 2 0.544291 0.144417 0.852701
399 1 0.668559 0.0553633 0.854103
425 1 0.778597 0.0703302 0.826346
499 1 0.84664 0.16437 0.855373
976 2 0.691379 0.197222 0.821098
955 2 0.989609 0.19136 0.844073
953 2 0.691772 0.214846 0.877208
431 1 0.0381667 0.320766 0.827249
878 2 0.113534 0.259161 0.861013
445 1 0.418394 0.459122 0.858221
418 1 0.247008 0.342251 0.87531
462 1 0.606368 0.294125 0.855427
405 1 0.623944 0.357872 0.813606
975 2 0.682915 0.355281 0.889606
935 2 0.471353 0.47355 0.820914
394 1 0.655502 0.481913 0.832796
417 1 0.747548 0.32661 0.842517
435 1 0.962169 0.346528 0.859942
913 2 0.133998 0.592257 0.831319
940 2 0.125488 0.402221 0.849448
937 2 0.254723 0.478682 0.851872
22 1 0.139608 0.768015 0.849911
943 2 0.392585 0.632279 0.860668
866 2 0.501129 0.754418 0.854863
901 2 0.263057 0.427605 0.815177
939 2 0.537093 0.569813 0.856741
933 2 0.683486 0.627334 0.828357
870 2 0.740696 0.738188 0.806557
931 2 0.687933 0.5415 0.866279
497 1 0.0219575 0.695034 0.848511
883 2 0.830229 0.477866 0.840248
890 2 0.862669 0.604036 0.859314
336 1 0.789029 0.746947 0.848124
452 1 0.229283 0.895826 0.856173
968 2 0.0839828 0.924323 0.869622
428 1 0.117635 0.933731 0.824311
434 1 0.360004 0.843186 0.841442
923 2 0.644451 0.687167 0.863177
919 2 0.583362 0.783627 0.824138
481 1 0.536745 0.976034 0.871315
868 2 0.637955 0.852198 0.862613
420 1 0.877984 0.955661 0.80086
451 1 0.825132 0.909424 0.850048
453 1 0.948064 0.0360248 0.854473
469 1 0.968373 0.857456 0.846303
995 2 0.16444 0.0951179 0.911448
996 2 0.00859154 0.261278 0.914497
446 1 0.249661 0.182595 0.933916
954 2 0.994104 0.145909 0.88407
934 2 0.319015 0.223809 0.89732
908 2 0.541625 0.234628 0.892058
493 1 0.405216 0.167687 0.930595
904 2 0.606459 0.0590491 0.897064
2 1 0.574814 0.160511 0.928136
427 1 0.452814 0.99393 0.926385
484 1 0.728761 0.102929 0.932052
888 2 0.877717 0.26269 0.892077
479 1 0.0434909 0.135618 0.929141
75 1 0.895439 0.118056 0.924162
426 1 0.0724823 0.362778 0.887382
483 1 0.159595 0.238905 0.897848
25 1 0.135591 0.40719 0.925403
436 1 0.266253 0.333104 0.92107
974 2 0.395515 0.391296 0.900487
32 1 0.318279 0.364235 0.958545
960 2 0.53007 0.43796 0.882224
409 1 0.739272 0.238096 0.911655
965 2 0.58582 0.366132 0.919847
415 1 0.646357 0.530637 0.905994
966 2 0.811096 0.416624 0.877538
480 1 0.841409 0.258422 0.937709
983 2 0.925305 0.384191 0.90515
465 1 0.763013 0.410187 0.919049