ITEM: TIMESTEP
1140
ITEM: NUMBER OF ATOMS
1000
ITEM: BOX BOUNDS pp pp pp
0.0000000000000000e+00 6.2996052494743662e+00
0.0000000000000000e+00 6.2996052494743662e+00
0.0000000000000000e+00 2.5198420997897465e+01
ITEM: ATOMS id type xs ys zs
1 1 0.080776 0.0760374 0.0289171
501 2 0.20083 0.207738 0.0361857
502 2 0.224416 0.0894819 0.0107641
521 2 0.221692 0.0351944 0.0530485
976 2 0.0110748 0.22599 0.00961418
8 1 0.356591 0.136079 0.0358264
9 1 0.523486 0.0574933 0.998606
503 2 0.624221 0.0832179 0.042791
10 1 0.617527 0.213166 0.0151565
508 2 0.653563 0.261037 0.0494614
979 2 0.680049 0.0233125 0.995436
6 1 0.892857 0.100215 0.0133262
504 2 0.763975 0.00786702 0.0265524
505 2 0.928933 0.0896024 0.0486143
509 2 0.796151 0.193844 0.0384264
12 1 0.210387 0.36409 0.00662724
981 2 0.059039 0.372859 0.0184308
7 1 0.346516 0.369165 0.0399844
507 2 0.218972 0.510724 0.0206676
14 1 0.484108 0.257898 0.029781
13 1 0.459889 0.42583 0.0195656
514 2 0.616592 0.381966 0.0159593
15 1 0.777666 0.386768 0.0109771
40 1 0.74079 0.376959 0.0507089
510 2 0.916837 0.351772 0.0391336
511 2 0.0755928 0.552883 0.0285466
516 2 0.160125 0.710322 0.0228356
512 2 0.425915 0.49186 0.0540104
517 2 0.316438 0.645001 0.029806
518 2 0.516669 0.581856 0.0325702
519 2 0.677466 0.57941 0.0369243
24 1 0.604546 0.738555 0.997907
16 1 0.979333 0.664129 0.0184215
20 1 0.785158 0.608144 0.00290142
45 1 0.836357 0.635479 0.0428582
515 2 0.898535 0.495567 0.0218331
2 1 0.256598 0.941722 0.0220481
21 1 0.0207318 0.821597 0.0174142
22 1 0.193973 0.827562 0.990879
46 1 0.123685 0.874216 0.0490728
23 1 0.394044 0.832361 0.0293085
3 1 0.460806 0.956973 0.0376546
524 2 0.63647 0.905997 0.0247485
50 1 0.716004 0.770623 0.0517479
998 2 0.537241 0.73439 0.0388371
5 1 0.914056 0.916474 0.0291917
520 2 0.848701 0.75998 0.022344
25 1 0.795427 0.906838 0.00047614
52 1 0.212537 0.0247521 0.100255
526 2 0.0959778 0.123747 0.0643119
32 1 0.311725 0.121427 0.0746221
28 1 0.491897 0.0926366 0.063475
33 1 0.406462 0.278812 0.0745958
58 1 0.465668 0.19809 0.105644
527 2 0.418266 0.0468831 0.102134
532 2 0.300021 0.173735 0.119146
528 2 0.599272 0.127112 0.0900165
529 2 0.745244 0.0100123 0.102203
34 1 0.766037 0.0856909 0.0702278
35 1 0.85924 0.264377 0.0728019
530 2 0.965983 0.0797948 0.0850274
534 2 0.798143 0.165397 0.103581
11 1 0.0556689 0.268856 0.0503093
37 1 0.146538 0.431904 0.0502496
506 2 0.231276 0.283457 0.0821264
531 2 0.184985 0.387205 0.105646
38 1 0.343904 0.439194 0.0807312
39 1 0.677123 0.410336 0.0946877
513 2 0.590125 0.452942 0.0598027
533 2 0.564646 0.294291 0.0788731
538 2 0.526181 0.428954 0.0987475
31 1 0.934636 0.288144 0.105945
36 1 0.0361759 0.394474 0.0806003
540 2 0.873046 0.433504 0.0817824
41 1 0.131232 0.576157 0.0659373
536 2 0.178142 0.549999 0.11
542 2 0.210201 0.7232 0.0863141
42 1 0.271869 0.586574 0.0638426
43 1 0.523088 0.582813 0.104045
48 1 0.425651 0.690551 0.063473
537 2 0.382841 0.488781 0.113571
567 2 0.377774 0.648753 0.112186
44 1 0.668955 0.629954 0.102435
49 1 0.602084 0.643918 0.0665878
539 2 0.754158 0.502452 0.0670615
544 2 0.785366 0.677429 0.0824089
70 1 0.939762 0.569828 0.0698482
545 2 0.044736 0.706239 0.0517574
564 2 0.841197 0.554275 0.107028
570 2 0.0442093 0.628382 0.0959498
26 1 0.0681693 0.963841 0.110873
27 1 0.19146 0.865547 0.0941643
525 2 0.997508 0.961611 0.0628059
546 2 0.0688384 0.789519 0.0838292
47 1 0.29297 0.76646 0.0539697
522 2 0.337323 0.942133 0.0669551
523 2 0.49158 0.848271 0.0670666
547 2 0.379839 0.809474 0.0961589
29 1 0.657931 0.949287 0.073397
543 2 0.602144 0.793054 0.0971969
73 1 0.44788 0.822242 0.128369
548 2 0.56141 0.953809 0.112684
549 2 0.749415 0.849605 0.0942996
30 1 0.803411 0.905792 0.0561401
55 1 0.913289 0.926774 0.0997708
550 2 0.917402 0.815157 0.0664592
51 1 0.0596543 0.155579 0.114313
551 2 0.131124 0.0634033 0.148302
53 1 0.475282 0.0834562 0.147835
77 1 0.268586 0.102773 0.167051
552 2 0.38031 0.190256 0.151079
54 1 0.639901 0.0293998 0.153199
59 1 0.665399 0.142556 0.123829
79 1 0.545782 0.125113 0.18407
553 2 0.53935 0.236435 0.14752
554 2 0.693581 0.193232 0.158629
60 1 0.873686 0.0360127 0.13029
535 2 0.854303 0.244544 0.132367
80 1 0.791126 0.0107332 0.168961
555 2 0.0136502 0.185964 0.154959
56 1 0.0899827 0.322316 0.136493
57 1 0.217907 0.210219 0.147233
61 1 0.0421928 0.487185 0.108697
62 1 0.228824 0.428958 0.148539
556 2 0.0933754 0.270361 0.176411
63 1 0.361105 0.322177 0.114908
557 2 0.350518 0.343785 0.186457
558 2 0.436795 0.360656 0.150882
64 1 0.661849 0.511304 0.128966
89 1 0.58431 0.408518 0.157158
559 2 0.606102 0.312235 0.119303
560 2 0.749093 0.35188 0.143711
65 1 0.895842 0.40541 0.12655
86 1 0.973569 0.398581 0.159891
66 1 0.0170055 0.644743 0.134501
541 2 0.123729 0.759319 0.124266
566 2 0.262672 0.703305 0.160947
67 1 0.283262 0.57523 0.141063
93 1 0.427467 0.731954 0.161236
562 2 0.441915 0.521403 0.145705
68 1 0.516114 0.675944 0.134662
69 1 0.696953 0.679245 0.150536
94 1 0.709815 0.52112 0.172523
563 2 0.570269 0.563572 0.161312
565 2 0.847095 0.549294 0.146285
71 1 0.115388 0.804559 0.166463
76 1 0.0248169 0.993117 0.177747
571 2 0.163267 0.907598 0.138027
72 1 0.290881 0.794271 0.129088
98 1 0.322066 0.890509 0.163581
572 2 0.320062 0.990448 0.13349
573 2 0.502097 0.91814 0.152883
74 1 0.632237 0.810254 0.136842
99 1 0.696217 0.891629 0.166631
75 1 0.8925 0.770232 0.103999
569 2 0.741286 0.733501 0.183156
574 2 0.776506 0.914381 0.136372
100 1 0.910223 0.724569 0.154011
575 2 0.0064936 0.873167 0.141995
81 1 0.0114663 0.134729 0.199253
82 1 0.226334 0.219984 0.188453
107 1 0.22263 0.156014 0.227791
576 2 0.157839 0.0740596 0.195629
83 1 0.450825 0.235003 0.194813
577 2 0.339437 0.0889436 0.204665
578 2 0.552519 0.115365 0.220588
579 2 0.743131 0.124716 0.200912
85 1 0.870369 0.215981 0.171475
110 1 0.871112 0.162991 0.223319
87 1 0.236686 0.43263 0.193732
561 2 0.107575 0.435525 0.176532
581 2 0.126233 0.3161 0.214821
88 1 0.485176 0.403988 0.185573
112 1 0.296825 0.515167 0.220114
113 1 0.461959 0.530817 0.222177
582 2 0.264935 0.302591 0.215958
583 2 0.516137 0.341038 0.219025
84 1 0.59118 0.296359 0.186263
109 1 0.687618 0.271546 0.221972
589 2 0.706074 0.418357 0.207717
90 1 0.832356 0.426498 0.171366
584 2 0.762722 0.297661 0.183091
115 1 0.850901 0.416925 0.213031
585 2 0.954789 0.297923 0.197181
590 2 0.986353 0.52946 0.184839
91 1 0.0770649 0.643161 0.179991
116 1 0.24576 0.575917 0.183523
586 2 0.091452 0.544612 0.215726
591 2 0.196996 0.749012 0.197303
92 1 0.455356 0.577206 0.179593
587 2 0.481227 0.687209 0.209673
592 2 0.336828 0.678913 0.202098
568 2 0.569093 0.707457 0.168721
588 2 0.581454 0.545685 0.202006
594 2 0.635854 0.729662 0.212281
95 1 0.847417 0.615744 0.187964
595 2 0.0308881 0.689521 0.214901
96 1 0.986649 0.80508 0.187303
97 1 0.194324 0.945506 0.180886
596 2 0.0797046 0.896142 0.206983
78 1 0.473638 0.000429884 0.183278
102 1 0.214851 0.965936 0.22403
597 2 0.373186 0.819107 0.193734
593 2 0.548454 0.842177 0.186952
124 1 0.531446 0.854313 0.226398
598 2 0.614127 0.980484 0.198827
580 2 0.896802 0.970925 0.211375
121 1 0.947594 0.835359 0.230777
599 2 0.722931 0.860015 0.20537
125 1 0.839717 0.75676 0.208933
600 2 0.850789 0.862699 0.17468
101 1 0.0473067 0.0214465 0.223965
106 1 0.0362403 0.203295 0.236405
601 2 0.147695 0.0865542 0.253257
126 1 0.0499342 0.00707664 0.278535
131 1 0.0282372 0.194073 0.281097
108 1 0.42046 0.179251 0.234673
602 2 0.324319 0.0745523 0.249144
603 2 0.501642 0.0317871 0.252653
132 1 0.284385 0.255744 0.252768
133 1 0.423379 0.142305 0.273863
604 2 0.694134 0.111875 0.245814
608 2 0.540606 0.238539 0.248669
134 1 0.618324 0.165491 0.276233
605 2 0.946079 0.10728 0.255394
130 1 0.809859 0.0215573 0.26489
135 1 0.79367 0.207121 0.269384
111 1 0.0142132 0.41873 0.226229
606 2 0.126526 0.279856 0.260176
136 1 0.0348594 0.396173 0.273167
137 1 0.208048 0.392203 0.275014
607 2 0.359696 0.367518 0.237615
138 1 0.463845 0.373996 0.265245
114 1 0.5785 0.431662 0.240803
609 2 0.794238 0.312513 0.241032
139 1 0.646207 0.335365 0.269027
638 2 0.496258 0.469352 0.29699
610 2 0.939733 0.294821 0.254444
614 2 0.73905 0.473565 0.254922
140 1 0.891236 0.462992 0.248753
639 2 0.816964 0.399947 0.279264
117 1 0.224215 0.637454 0.228155
611 2 0.177308 0.497452 0.245703
616 2 0.131463 0.743438 0.24316
617 2 0.197163 0.62632 0.268123
118 1 0.374414 0.626237 0.242117
612 2 0.314674 0.499468 0.259208
613 2 0.482893 0.514079 0.26123
119 1 0.651983 0.597809 0.236655
618 2 0.55506 0.715216 0.244167
619 2 0.760474 0.707412 0.24508
144 1 0.600109 0.608877 0.272799
120 1 0.789999 0.557172 0.222066
615 2 0.949058 0.56482 0.221756
620 2 0.930686 0.682945 0.246866
141 1 0.0286956 0.582016 0.26424
145 1 0.837619 0.568132 0.270473
122 1 0.258735 0.804413 0.227351
621 2 0.102669 0.887899 0.24835
127 1 0.220263 0.962467 0.272184
146 1 0.978169 0.802406 0.266608
147 1 0.236599 0.805486 0.270484
103 1 0.409363 0.981569 0.223297
123 1 0.401944 0.79873 0.232896
622 2 0.345984 0.933804 0.256061
623 2 0.514617 0.870949 0.268521
128 1 0.377942 0.00782454 0.286237
148 1 0.404849 0.776811 0.271832
104 1 0.621587 0.981907 0.236594
624 2 0.668035 0.830226 0.256347
129 1 0.655482 0.962473 0.277099
105 1 0.771491 0.943068 0.23331
625 2 0.952143 0.964729 0.249444
150 1 0.828435 0.858435 0.266066
626 2 0.143973 0.0809566 0.295188
151 1 0.015533 0.0884406 0.319351
156 1 0.0662004 0.230228 0.327783
651 2 0.169328 0.0822164 0.333693
627 2 0.291471 0.140473 0.295308
153 1 0.343733 0.0364509 0.327704
158 1 0.435935 0.161005 0.313227
652 2 0.292028 0.171797 0.341313
628 2 0.531053 0.0497147 0.300893
629 2 0.746064 0.0893579 0.296949
154 1 0.686731 0.000969736 0.329656
159 1 0.632342 0.164026 0.318619
630 2 0.892216 0.101263 0.294438
155 1 0.857881 0.00991521 0.328583
160 1 0.784976 0.179984 0.326384
655 2 0.910213 0.140951 0.347816
631 2 0.125469 0.308355 0.298949
161 1 0.0438702 0.383345 0.325587
162 1 0.207263 0.414317 0.319486
656 2 0.132082 0.32186 0.355057
632 2 0.368533 0.266817 0.286772
637 2 0.341291 0.411441 0.298773
157 1 0.268228 0.279332 0.317636
633 2 0.51938 0.29118 0.295025
163 1 0.478748 0.375804 0.327004
164 1 0.654728 0.394264 0.314291
658 2 0.506967 0.251906 0.343706
659 2 0.715607 0.339495 0.347773
634 2 0.711963 0.275163 0.297768
635 2 0.921394 0.305744 0.296091
640 2 0.940017 0.489816 0.295565
165 1 0.809388 0.350445 0.319688
142 1 0.271547 0.540068 0.291471
636 2 0.128677 0.510759 0.29683
641 2 0.0801444 0.678277 0.288355
167 1 0.163941 0.635385 0.321456
143 1 0.434726 0.602985 0.287465
642 2 0.303352 0.669919 0.308567
168 1 0.435958 0.565591 0.325014
662 2 0.280784 0.54796 0.343696
643 2 0.556993 0.619606 0.310617
644 2 0.717367 0.705773 0.281601
169 1 0.682428 0.493347 0.287429
663 2 0.61245 0.502701 0.335041
669 2 0.701429 0.654806 0.332491
645 2 0.890147 0.709069 0.288495
166 1 0.00820333 0.582703 0.322609
170 1 0.832505 0.602556 0.314276
646 2 0.0874457 0.830331 0.28739
152 1 0.227491 0.938221 0.316459
171 1 0.0148872 0.780185 0.318576
172 1 0.19465 0.787662 0.31339
671 2 0.0934044 0.920993 0.331986
647 2 0.334134 0.864257 0.29624
648 2 0.466434 0.908375 0.31744
173 1 0.434327 0.751044 0.319395
672 2 0.343834 0.846361 0.341185
149 1 0.560791 0.750541 0.287592
174 1 0.633924 0.827463 0.313038
649 2 0.768629 0.924348 0.299001
650 2 0.940047 0.913868 0.297167
670 2 0.793037 0.7805 0.319516
674 2 0.753379 0.901338 0.348256
175 1 0.956856 0.88984 0.337906
176 1 0.0301234 0.0150354 0.361841
181 1 0.0156706 0.216149 0.372267
182 1 0.160887 0.177907 0.363409
676 2 0.167083 0.0316542 0.385544
183 1 0.387118 0.189885 0.368432
677 2 0.297812 0.105456 0.39288
678 2 0.526474 0.0783849 0.393681
653 2 0.535386 0.0865136 0.341438
654 2 0.649777 0.176561 0.356208
179 1 0.616448 0.981668 0.363865
184 1 0.543998 0.226228 0.385183
679 2 0.681181 0.140931 0.395136
180 1 0.773297 0.0611089 0.357963
185 1 0.788945 0.207195 0.367131
680 2 0.882556 0.131897 0.393285
661 2 0.0982685 0.492889 0.346493
186 1 0.994553 0.43761 0.371064
187 1 0.250175 0.389094 0.366235
681 2 0.106555 0.339713 0.394471
686 2 0.104026 0.51442 0.392671
657 2 0.372199 0.330818 0.347862
188 1 0.40259 0.474012 0.357335
213 1 0.35728 0.458698 0.406708
682 2 0.261146 0.270067 0.394595
683 2 0.463565 0.345119 0.385871
189 1 0.573127 0.398169 0.361897
684 2 0.659087 0.335254 0.390814
689 2 0.708729 0.48473 0.395175
660 2 0.928982 0.295413 0.342068
665 2 0.892829 0.469375 0.33831
190 1 0.832526 0.376152 0.367189
685 2 0.932464 0.326721 0.389358
666 2 0.0380338 0.712812 0.349692
191 1 0.987255 0.621181 0.380481
192 1 0.169374 0.653635 0.372197
691 2 0.134776 0.778244 0.392061
667 2 0.281223 0.712747 0.348207
193 1 0.44254 0.620358 0.365077
687 2 0.268729 0.563891 0.389102
692 2 0.278329 0.738205 0.393248
664 2 0.746047 0.506711 0.351351
668 2 0.541148 0.741161 0.343514
194 1 0.602822 0.604583 0.368097
688 2 0.501424 0.493009 0.387106
693 2 0.5375 0.734047 0.392023
694 2 0.752394 0.647624 0.378789
195 1 0.854848 0.616477 0.34827
690 2 0.858183 0.529279 0.386312
177 1 0.24081 0.961822 0.358131
197 1 0.165636 0.812623 0.353142
696 2 0.0781938 0.919204 0.399209
178 1 0.384943 0.0236094 0.363786
198 1 0.395938 0.759107 0.368605
697 2 0.324748 0.888995 0.38218
698 2 0.513086 0.895435 0.396494
673 2 0.481397 0.907193 0.357301
199 1 0.655483 0.778468 0.369194
699 2 0.7453 0.918623 0.390797
675 2 0.894999 0.960753 0.370341
695 2 0.885435 0.696039 0.397648
196 1 0.98334 0.836073 0.374318
200 1 0.852994 0.773962 0.355093
700 2 0.927069 0.950042 0.407684
201 1 0.0382748 0.0562092 0.413961
202 1 0.198231 0.995329 0.420885
206 1 0.988871 0.229434 0.413947
207 1 0.143705 0.157856 0.409194
231 1 0.987937 0.175561 0.466887
232 1 0.226662 0.180094 0.46637
701 2 0.1211 0.0816444 0.446378
203 1 0.387251 0.0144491 0.408711
208 1 0.406735 0.204589 0.409689
228 1 0.434336 0.985829 0.456258
233 1 0.382222 0.245814 0.463145
702 2 0.314759 0.0828942 0.442933
209 1 0.55629 0.24164 0.422198
229 1 0.572717 0.0537139 0.458101
234 1 0.565525 0.235782 0.460662
703 2 0.480482 0.13749 0.438973
704 2 0.692431 0.163422 0.436651
205 1 0.770819 0.035592 0.414782
230 1 0.765774 0.0500411 0.457318
235 1 0.802564 0.217402 0.465823
705 2 0.896413 0.120804 0.43724
211 1 0.0163678 0.407392 0.42664
212 1 0.207977 0.403966 0.422241
236 1 0.0368164 0.414234 0.466529
237 1 0.185884 0.44336 0.464824
706 2 0.0867527 0.267157 0.442887
238 1 0.330125 0.413258 0.453789
707 2 0.261742 0.240989 0.432844
708 2 0.446534 0.356259 0.429977
713 2 0.514527 0.535996 0.427711
214 1 0.595488 0.402413 0.418011
239 1 0.545619 0.412275 0.460779
709 2 0.707633 0.317317 0.439314
714 2 0.710584 0.471945 0.44089
210 1 0.793606 0.227822 0.408489
215 1 0.831392 0.380874 0.414786
240 1 0.815038 0.40361 0.468341
710 2 0.901548 0.303811 0.447818
217 1 0.17746 0.649287 0.414115
241 1 0.0287544 0.683149 0.468344
242 1 0.191101 0.641114 0.460663
711 2 0.120275 0.541118 0.438258
218 1 0.433725 0.627012 0.401705
243 1 0.425777 0.602844 0.46054
712 2 0.308664 0.554872 0.437701
717 2 0.302066 0.715114 0.43739
219 1 0.635539 0.622197 0.408984
718 2 0.56815 0.685932 0.446139
719 2 0.714564 0.706078 0.4415
216 1 0.983342 0.594533 0.423428
220 1 0.806132 0.601435 0.416004
715 2 0.897973 0.490706 0.440846
720 2 0.886445 0.712979 0.442058
222 1 0.212158 0.834691 0.422041
227 1 0.237421 0.96885 0.45847
716 2 0.0781663 0.734736 0.433225
247 1 0.191717 0.800659 0.463755
721 2 0.0780893 0.89392 0.443343
223 1 0.416035 0.775579 0.4179
248 1 0.415038 0.775655 0.464125
722 2 0.342961 0.887648 0.436316
204 1 0.613584 0.0475929 0.421521
224 1 0.642632 0.805861 0.410439
723 2 0.519963 0.878112 0.441094
724 2 0.68518 0.906109 0.446684
221 1 0.950853 0.820276 0.421831
225 1 0.789751 0.816911 0.4218
226 1 0.995358 0.0233175 0.464714
246 1 0.969147 0.837712 0.464913
250 1 0.804176 0.813146 0.466597
725 2 0.865275 0.921454 0.445791
256 1 0.0255576 0.168868 0.512477
257 1 0.19109 0.186373 0.509596
726 2 0.118294 0.0644374 0.487877
258 1 0.380071 0.202865 0.508581
727 2 0.316117 0.0989863 0.483543
752 2 0.315228 0.0924309 0.533718
254 1 0.601684 0.0235417 0.505693
259 1 0.596328 0.234609 0.51127
728 2 0.468055 0.114243 0.481773
729 2 0.676681 0.131742 0.483071
255 1 0.759111 0.0494614 0.510339
260 1 0.779176 0.219891 0.512579
730 2 0.901343 0.109407 0.497684
755 2 0.876268 0.123158 0.536393
262 1 0.169001 0.427994 0.504094
731 2 0.110578 0.275192 0.482299
732 2 0.253133 0.305243 0.486839
263 1 0.351926 0.40854 0.496007
733 2 0.476291 0.326608 0.487198
758 2 0.449226 0.353259 0.529795
264 1 0.60509 0.393245 0.513196
734 2 0.706881 0.32161 0.485642
739 2 0.71596 0.474903 0.495576
261 1 0.00848851 0.417537 0.510946
265 1 0.832019 0.397277 0.51214
735 2 0.915794 0.289095 0.491992
760 2 0.890958 0.285407 0.534778
267 1 0.174751 0.641901 0.511207
736 2 0.0763739 0.544038 0.485804
741 2 0.0821583 0.779053 0.499652
737 2 0.283168 0.533717 0.48579
761 2 0.103689 0.529189 0.531362
268 1 0.388307 0.612442 0.51242
742 2 0.324813 0.685089 0.481639
738 2 0.476197 0.484289 0.492165
762 2 0.273331 0.536389 0.540888
244 1 0.601393 0.540902 0.470301
269 1 0.598972 0.547875 0.515384
743 2 0.522911 0.652812 0.490189
744 2 0.685002 0.686631 0.493357
245 1 0.75654 0.585059 0.464823
266 1 0.00914936 0.631692 0.514856
270 1 0.81529 0.605484 0.51031
740 2 0.906607 0.508451 0.48965
745 2 0.885138 0.699543 0.490756
252 1 0.24637 0.977223 0.509601
272 1 0.237754 0.79839 0.504703
746 2 0.138225 0.910517 0.488563
771 2 0.116023 0.901571 0.528346
253 1 0.397949 0.00675183 0.513771
273 1 0.405905 0.797606 0.512322
747 2 0.343885 0.883944 0.481782
249 1 0.598874 0.815398 0.473318
274 1 0.624574 0.814963 0.511914
748 2 0.517878 0.920945 0.491847
749 2 0.70918 0.914283 0.487855
773 2 0.485979 0.91545 0.54359
774 2 0.708514 0.918247 0.53019
251 1 0.00803696 0.00772757 0.513612
271 1 0.947764 0.843176 0.51183
275 1 0.795424 0.810142 0.503088
750 2 0.873381 0.944837 0.485225
281 1 0.0366479 0.171496 0.554469
282 1 0.199249 0.235834 0.55624
751 2 0.14669 0.0621697 0.535352
776 2 0.118278 0.0806405 0.575034
278 1 0.392043 0.0202534 0.560639
283 1 0.352612 0.22825 0.556893
777 2 0.272482 0.117697 0.576867
778 2 0.477869 0.141341 0.574928
284 1 0.559238 0.224428 0.552149
753 2 0.489349 0.114571 0.527622
754 2 0.678184 0.0855641 0.542484
779 2 0.66103 0.132991 0.587625
285 1 0.775604 0.16887 0.562427
780 2 0.953319 0.105223 0.583975
286 1 0.0173304 0.442356 0.557098
287 1 0.190285 0.417522 0.551191
756 2 0.0506643 0.313919 0.536349
781 2 0.104489 0.338612 0.578128
288 1 0.391151 0.440257 0.556211
757 2 0.282295 0.338828 0.521353
782 2 0.302091 0.366206 0.583287
783 2 0.471286 0.353205 0.574522
289 1 0.635427 0.405262 0.552293
759 2 0.716336 0.324898 0.529252
784 2 0.668399 0.28359 0.582946
764 2 0.7321 0.493719 0.533751
290 1 0.779119 0.359199 0.564034
785 2 0.955704 0.30096 0.572654
292 1 0.170921 0.642767 0.558268
766 2 0.0537145 0.753013 0.541117
786 2 0.116397 0.499111 0.582054
791 2 0.0799007 0.747043 0.580527
293 1 0.422232 0.622901 0.562339
767 2 0.305605 0.705778 0.539733
787 2 0.284985 0.529234 0.58624
792 2 0.310544 0.702071 0.588774
294 1 0.627815 0.568697 0.554765
763 2 0.491634 0.516152 0.537419
768 2 0.52637 0.716375 0.531937
769 2 0.716996 0.728855 0.533841
788 2 0.524353 0.514025 0.580469
789 2 0.689749 0.476154 0.585986
793 2 0.543245 0.680331 0.57745
794 2 0.705442 0.718261 0.580718
291 1 0.998692 0.609222 0.556931
295 1 0.795095 0.61219 0.563877
765 2 0.904209 0.495544 0.534766
770 2 0.871112 0.741054 0.535539
790 2 0.882231 0.492455 0.573613
795 2 0.908422 0.731024 0.576418
277 1 0.23727 0.953212 0.560897
297 1 0.204484 0.796791 0.554349
796 2 0.0754834 0.907283 0.57575
298 1 0.433492 0.77082 0.562925
772 2 0.340757 0.864856 0.542114
797 2 0.344576 0.871873 0.582292
798 2 0.486729 0.907946 0.588339
279 1 0.592116 0.00737353 0.567445
299 1 0.614593 0.839739 0.554332
799 2 0.74708 0.988208 0.5662
276 1 0.00296276 0.0155869 0.554041
296 1 0.957672 0.861471 0.558479
300 1 0.787196 0.834281 0.559067
775 2 0.872246 0.973187 0.535123
800 2 0.902229 0.954834 0.582656
306 1 0.0707431 0.198408 0.591486
307 1 0.217222 0.227048 0.607225
801 2 0.142892 0.0872471 0.614537
326 1 0.993413 0.0152715 0.654071
327 1 0.2206 0.0115708 0.649617
331 1 0.0463116 0.147651 0.637665
332 1 0.20443 0.178016 0.649744
303 1 0.386838 0.0163793 0.597732
802 2 0.300885 0.102419 0.620414
803 2 0.472831 0.12299 0.627786
328 1 0.42963 0.999734 0.649335
333 1 0.363558 0.203224 0.641501
304 1 0.555835 0.0356176 0.606083
309 1 0.574473 0.233681 0.608892
804 2 0.710988 0.114913 0.624563
329 1 0.592971 0.0530299 0.649293
334 1 0.587415 0.237757 0.647317
280 1 0.79471 0.0455711 0.59677
305 1 0.904104 0.0944588 0.627195
310 1 0.836108 0.275984 0.597378
335 1 0.792985 0.229281 0.647088
312 1 0.202682 0.407571 0.608162
806 2 0.0933902 0.297825 0.622432
336 1 0.990802 0.375831 0.644299
337 1 0.169016 0.406783 0.653957
308 1 0.393385 0.236556 0.602631
313 1 0.401562 0.443259 0.605666
807 2 0.307386 0.354718 0.640009
808 2 0.458479 0.324247 0.630525
338 1 0.407651 0.470451 0.647813
314 1 0.591167 0.420998 0.608674
809 2 0.715876 0.322184 0.622235
814 2 0.724362 0.521961 0.629085
339 1 0.601072 0.386893 0.656731
311 1 0.986207 0.392504 0.603114
315 1 0.823064 0.433365 0.603836
810 2 0.913124 0.271568 0.627074
815 2 0.929953 0.504726 0.626881
340 1 0.80623 0.400175 0.646588
317 1 0.187807 0.650914 0.602643
811 2 0.0965907 0.532249 0.624685
816 2 0.0933632 0.715637 0.63001
342 1 0.230919 0.633693 0.654368
318 1 0.408932 0.596429 0.600203
812 2 0.285717 0.524813 0.63123
817 2 0.330363 0.751938 0.629709
343 1 0.406154 0.633021 0.658208
319 1 0.612218 0.597464 0.608734
813 2 0.542869 0.509783 0.637173
818 2 0.519102 0.702648 0.630784
819 2 0.685561 0.765982 0.622565
316 1 0.0114198 0.611677 0.596182
320 1 0.833836 0.592155 0.605038
341 1 0.964652 0.639925 0.643271
345 1 0.813995 0.604742 0.655742
301 1 0.0131446 0.00865099 0.612735
302 1 0.231667 0.982668 0.600229
322 1 0.211143 0.815207 0.605523
821 2 0.116549 0.921945 0.628041
323 1 0.446612 0.787623 0.604188
822 2 0.335203 0.900377 0.623632
347 1 0.220502 0.819533 0.65354
348 1 0.421411 0.799383 0.658137
324 1 0.604742 0.83127 0.592744
823 2 0.531992 0.859613 0.631014
824 2 0.661897 0.930716 0.620462
820 2 0.904524 0.753961 0.62708
321 1 0.997156 0.847803 0.606058
325 1 0.799361 0.856817 0.598293
825 2 0.847731 0.945452 0.624733
826 2 0.120845 0.0948552 0.675037
352 1 0.243035 0.997321 0.693211
357 1 0.240255 0.185206 0.692255
851 2 0.0482459 0.106752 0.722292
827 2 0.333091 0.104191 0.668223
828 2 0.474171 0.142983 0.673043
353 1 0.493907 0.0417764 0.69901
358 1 0.397083 0.233989 0.700423
829 2 0.678485 0.136366 0.677439
854 2 0.704192 0.137001 0.71831
805 2 0.940156 0.209385 0.664312
330 1 0.840765 0.078754 0.659513
830 2 0.965029 0.0675475 0.687941
356 1 0.0150559 0.230588 0.701182
355 1 0.805887 0.0610686 0.696726
360 1 0.814686 0.231286 0.701152
831 2 0.0879225 0.288535 0.665281
361 1 0.00328586 0.40269 0.690934
362 1 0.186711 0.487405 0.687155
856 2 0.136691 0.338821 0.707123
832 2 0.280826 0.349991 0.67843
833 2 0.451745 0.323952 0.666538
363 1 0.38563 0.401666 0.703433
834 2 0.716818 0.314582 0.681373
839 2 0.69788 0.493082 0.666057
359 1 0.579658 0.229404 0.69356
364 1 0.616863 0.415318 0.699394
835 2 0.877132 0.3402 0.675589
365 1 0.809243 0.458499 0.693572
836 2 0.0771948 0.543138 0.661703
366 1 0.979252 0.668659 0.686617
367 1 0.202886 0.624716 0.692733
861 2 0.0651739 0.547724 0.703815
837 2 0.323403 0.5278 0.676662
842 2 0.282715 0.736844 0.67822
368 1 0.400511 0.629566 0.69698
344 1 0.592914 0.618214 0.659828
838 2 0.498647 0.474843 0.67885
843 2 0.514928 0.725626 0.68247
844 2 0.706122 0.70925 0.674783
369 1 0.586026 0.596603 0.700655
840 2 0.927598 0.533033 0.677453
845 2 0.882405 0.756298 0.67109
370 1 0.789396 0.606013 0.69735
841 2 0.11312 0.755138 0.680294
846 2 0.12691 0.922857 0.670459
371 1 0.987309 0.797289 0.709442
372 1 0.226355 0.855868 0.702086
847 2 0.343896 0.922812 0.672126
848 2 0.504417 0.906799 0.678656
373 1 0.399837 0.822021 0.70407
349 1 0.622749 0.819406 0.667187
849 2 0.711243 0.986369 0.654845
354 1 0.639597 0.989764 0.69722
374 1 0.600986 0.814682 0.704308
346 1 0.0131448 0.817004 0.65298
350 1 0.781975 0.841715 0.651484
850 2 0.948581 0.911024 0.681676
375 1 0.736762 0.868369 0.687257
377 1 0.234749 0.983141 0.733184
382 1 0.25569 0.147842 0.748421
876 2 0.127713 0.0504673 0.754592
852 2 0.372504 0.0901612 0.718588
853 2 0.517509 0.184715 0.723483
378 1 0.401103 0.0409215 0.754824
383 1 0.389938 0.231039 0.744962
877 2 0.368134 0.174856 0.78167
384 1 0.630752 0.257919 0.73886
878 2 0.518772 0.131296 0.763693
879 2 0.68174 0.12703 0.757961
380 1 0.75659 0.987068 0.747553
855 2 0.831948 0.114809 0.737365
376 1 0.983525 0.994211 0.739677
381 1 0.944248 0.227306 0.744731
385 1 0.790572 0.259149 0.745978
880 2 0.962328 0.105959 0.770805
386 1 0.0342156 0.398658 0.736265
387 1 0.190675 0.453839 0.727779
881 2 0.111607 0.236478 0.737679
887 2 0.276713 0.517646 0.760763
857 2 0.286972 0.295663 0.720263
858 2 0.513346 0.33243 0.724397
863 2 0.491836 0.561377 0.725251
388 1 0.397239 0.392524 0.74563
882 2 0.271471 0.316639 0.759482
883 2 0.490124 0.291658 0.766641
859 2 0.713791 0.338793 0.717944
389 1 0.587542 0.443146 0.740894
860 2 0.909532 0.346498 0.717255
865 2 0.888998 0.516274 0.729493
884 2 0.704644 0.349942 0.783159
390 1 0.783356 0.402772 0.753874
885 2 0.927968 0.351174 0.763865
866 2 0.134717 0.750018 0.71749
392 1 0.172754 0.607171 0.740801
886 2 0.0424727 0.544932 0.744005
862 2 0.297622 0.543565 0.717647
867 2 0.298877 0.708308 0.71732
393 1 0.377394 0.645896 0.744572
888 2 0.486477 0.501926 0.766109
864 2 0.702091 0.49544 0.726099
868 2 0.506907 0.718213 0.722746
869 2 0.699989 0.695794 0.723298
394 1 0.594851 0.607729 0.744476
889 2 0.696481 0.514329 0.769595
870 2 0.843831 0.747077 0.712754
391 1 0.956067 0.665168 0.729353
395 1 0.790279 0.605966 0.748609
890 2 0.897958 0.501328 0.773257
895 2 0.972898 0.675784 0.764872
351 1 0.0765068 0.949138 0.707826
871 2 0.0955572 0.894486 0.745929
397 1 0.176268 0.753092 0.752394
872 2 0.390871 0.941576 0.725379
873 2 0.527822 0.899646 0.727289
398 1 0.309493 0.822627 0.753756
897 2 0.218483 0.914669 0.771522
898 2 0.453396 0.792624 0.753169
379 1 0.551466 0.0391446 0.734156
399 1 0.60952 0.776796 0.752054
874 2 0.745797 0.854555 0.724439
875 2 0.87032 0.96354 0.718349
396 1 0.921852 0.846074 0.738117
400 1 0.825228 0.749642 0.751978
401 1 0.0832631 0.100537 0.795098
402 1 0.231014 0.0600747 0.779413
406 1 0.0396152 0.257941 0.774834
431 1 0.0915817 0.21866 0.819908
902 2 0.309183 0.109783 0.814201
409 1 0.526131 0.134991 0.801524
909 2 0.610946 0.222201 0.780126
405 1 0.95035 0.064137 0.810749
410 1 0.785387 0.185517 0.782424
435 1 0.774132 0.0552221 0.809864
905 2 0.882774 0.202744 0.808824
407 1 0.198131 0.207488 0.782235
412 1 0.149254 0.381878 0.761905
906 2 0.217942 0.364498 0.818244
911 2 0.988128 0.482302 0.826137
912 2 0.188338 0.506148 0.792033
408 1 0.331152 0.273183 0.808959
413 1 0.406055 0.39673 0.789708
438 1 0.417384 0.396749 0.829668
414 1 0.590593 0.421677 0.798395
908 2 0.518312 0.290241 0.809978
440 1 0.683248 0.205129 0.822315
913 2 0.542239 0.532293 0.829639
411 1 0.995515 0.36691 0.797999
415 1 0.78792 0.477245 0.801792
910 2 0.803572 0.336442 0.811502
416 1 0.0378278 0.489152 0.780671
417 1 0.157888 0.599006 0.822611
891 2 0.12207 0.638768 0.772877
418 1 0.376655 0.554753 0.787607
892 2 0.31894 0.709814 0.782421
443 1 0.392286 0.541502 0.827467
918 2 0.451416 0.677935 0.813663
419 1 0.627113 0.575614 0.800536
893 2 0.504771 0.654098 0.774931
894 2 0.68583 0.685373 0.76931
420 1 0.820145 0.642596 0.788298
920 2 0.969712 0.665976 0.805508
421 1 0.0786799 0.783845 0.785043
422 1 0.206535 0.794667 0.800914
896 2 0.0194863 0.961633 0.774904
916 2 0.0270911 0.791993 0.825902
921 2 0.0388838 0.936468 0.814525
922 2 0.186356 0.957637 0.806493
403 1 0.389848 0.00753244 0.796015
423 1 0.382787 0.835165 0.795542
404 1 0.539488 0.923911 0.766726
424 1 0.585204 0.786674 0.790943
899 2 0.736472 0.878644 0.773596
904 2 0.644489 0.0235945 0.783588
919 2 0.721318 0.732321 0.805167
923 2 0.558985 0.9524 0.810418
924 2 0.707094 0.916945 0.814359
425 1 0.932111 0.814566 0.778429
900 2 0.858867 0.965978 0.781258
925 2 0.900835 0.884897 0.813323
432 1 0.149695 0.169149 0.866593
901 2 0.185081 0.0571917 0.833109
926 2 0.0347057 0.0689468 0.878888
427 1 0.275147 0.0555331 0.875279
433 1 0.476641 0.171669 0.850152
903 2 0.477667 0.0206687 0.839659
907 2 0.256423 0.23573 0.837002
932 2 0.36285 0.237923 0.877683
429 1 0.633482 0.0724446 0.829712
434 1 0.586197 0.13317 0.875901
929 2 0.738773 0.112155 0.862819
930 2 0.946487 0.155749 0.844408
935 2 0.831642 0.253643 0.843786
950 2 0.876793 0.0343596 0.87825
936 2 0.0993859 0.382389 0.846652
937 2 0.239045 0.551617 0.856613
437 1 0.327245 0.370227 0.85837
463 1 0.47373 0.457894 0.863137
439 1 0.552646 0.326576 0.846953
914 2 0.681197 0.415724 0.826916
934 2 0.666357 0.314461 0.869882
436 1 0.969531 0.311304 0.834119
915 2 0.825413 0.455551 0.841416
931 2 0.0322098 0.27064 0.876684
940 2 0.953594 0.423238 0.859428
441 1 0.0437243 0.561503 0.864945
442 1 0.103961 0.684296 0.853393
941 2 0.0650849 0.787842 0.877514
917 2 0.294253 0.687726 0.818176
942 2 0.398153 0.611119 0.864613
444 1 0.608337 0.675833 0.832648
939 2 0.554549 0.598342 0.862999
943 2 0.544428 0.751736 0.864908
944 2 0.74664 0.726808 0.879814
445 1 0.760548 0.638373 0.835124
470 1 0.835614 0.58985 0.868089
945 2 0.930407 0.645319 0.841588
426 1 0.0389121 0.999098 0.847816
447 1 0.15756 0.887484 0.842183
472 1 0.267 0.714832 0.859161
946 2 0.144342 0.916792 0.883832
428 1 0.311236 0.91551 0.825058
448 1 0.389699 0.8029 0.844826
947 2 0.322402 0.897889 0.877951
948 2 0.503285 0.899065 0.865113
449 1 0.543005 0.811689 0.832712
949 2 0.65744 0.951364 0.852326
430 1 0.827877 0.991342 0.847291
446 1 0.905655 0.864634 0.874529
450 1 0.843203 0.819713 0.845039
451 1 0.0348281 0.158032 0.906511
927 2 0.214561 0.16457 0.903233
951 2 0.112029 0.260965 0.938851
458 1 0.384143 0.212425 0.917873