ITEM: TIMESTEP
16760
ITEM: NUMBER OF ATOMS
1000
ITEM: BOX BOUNDS pp pp pp
0.0000000000000000e+00 6.2996052494743662e+00
0.0000000000000000e+00 6.2996052494743662e+00
0.0000000000000000e+00 2.5198420997897465e+01
ITEM: ATOMS id type xs ys zs
581 2 0.995265 0.0866642 0.061382
471 1 0.982461 0.0512947 0.00246305
51 1 0.0872951 0.181316 0.0415355
951 2 0.123492 0.00405372 0.0349062
903 2 0.183714 0.148597 0.952255
526 2 0.411666 0.111814 0.0117354
512 2 0.223539 0.142581 0.0232372
548 2 0.317422 0.0400022 0.036926
34 1 0.447919 0.213517 0.0490764
96 1 0.486444 0.991634 0.998201
518 2 0.693772 0.0394145 0.031189
29 1 0.553018 0.227593 0.0168626
507 2 0.601318 0.14152 0.0473235
918 2 0.879515 0.0447155 0.0369553
71 1 0.939828 0.249867 0.035643
973 2 0.790136 0.177279 0.0264442
510 2 0.160112 0.379777 0.050761
927 2 0.0838142 0.329463 0.0212
482 1 0.258237 0.517203 0.0397449
52 1 0.363529 0.353104 0.0628136
952 2 0.249628 0.287208 0.0267466
511 2 0.352521 0.394862 0.026206
503 2 0.602199 0.40243 0.987134
986 2 0.367663 0.258318 0.00023815
27 1 0.669721 0.301012 0.0303349
17 1 0.543204 0.337419 0.0706839
73 1 0.764138 0.43786 0.01493
13 1 0.924472 0.374554 0.00346485
529 2 0.817931 0.486068 0.0474962
977 2 0.807975 0.321192 0.0535008
485 1 0.908367 0.403529 0.0768727
454 1 0.0943288 0.52482 0.0240985
85 1 0.104402 0.575362 0.0644436
523 2 0.192648 0.590959 0.998579
997 2 0.0376928 0.603711 0.998238
9 1 0.26439 0.662075 0.0650925
63 1 0.442731 0.520771 0.0398507
48 1 0.328415 0.628952 0.024749
947 2 0.411266 0.701476 0.0559524
978 2 0.45105 0.63387 0.993838
552 2 0.517491 0.492166 0.0717446
79 1 0.570236 0.547611 0.014162
15 1 0.582683 0.644746 0.0547228
487 1 0.996548 0.454978 0.0457753
987 2 0.98253 0.611125 0.0384614
520 2 0.723049 0.621333 0.0411121
49 1 0.846339 0.719452 0.0513918
36 1 0.774343 0.898907 0.0281048
498 1 0.991177 0.951503 0.0293529
494 1 0.156455 5.18974e-05 0.984957
70 1 0.0930089 0.84422 0.0414471
23 1 0.274948 0.82536 0.0426189
12 1 0.402562 0.904039 0.0231004
455 1 0.346783 0.777675 0.992079
979 2 0.244165 0.944866 0.014326
33 1 0.489467 0.739992 0.0198907
4 1 0.587068 0.88899 0.0224159
524 2 0.694974 0.830608 0.0551932
37 1 0.0383272 0.764073 0.00933163
525 2 0.756502 0.975796 0.0647099
495 1 0.769678 0.989253 3.61818e-05
488 1 0.0122074 0.906231 0.995688
560 2 0.139196 0.105277 0.0814524
559 2 0.974582 0.0537318 0.128529
92 1 0.28822 0.19426 0.062696
546 2 0.181493 0.266749 0.0819279
589 2 0.0899413 0.208847 0.111871
89 1 0.4003 0.218075 0.0921163
516 2 0.480178 0.0314822 0.0494356
599 2 0.231773 0.104991 0.11495
543 2 0.389486 0.107516 0.120285
45 1 0.603138 0.996179 0.0757895
565 2 0.714949 0.399556 0.0735984
554 2 0.635504 0.218348 0.0815323
558 2 0.525886 0.238078 0.112556
528 2 0.877904 0.246754 0.0832735
982 2 0.76549 0.167851 0.0669558
967 2 0.877501 0.00393314 0.0872904
57 1 0.167491 0.387849 0.114478
65 1 0.0590281 0.438 0.0803578
527 2 0.50231 0.367181 0.0241032
561 2 0.613176 0.386968 0.107717
78 1 0.319829 0.376859 0.108397
477 1 0.651206 0.453601 0.0384006
42 1 0.806029 0.410026 0.103618
575 2 0.968001 0.324067 0.115494
521 2 0.761748 0.566985 0.0852057
41 1 0.0311795 0.273361 0.0794885
77 1 0.955688 0.469389 0.113455
486 1 0.881582 0.185367 0.121638
7 1 0.172802 0.650592 0.0971314
985 2 0.0948707 0.540954 0.116091
594 2 0.0144774 0.658861 0.0927857
28 1 0.18733 0.489637 0.0878611
139 1 0.112165 0.684601 0.0360953
514 2 0.363549 0.548805 0.068285
11 1 0.241165 0.555812 0.13585
56 1 0.615144 0.551039 0.104064
533 2 0.492209 0.623212 0.0882873
86 1 0.696312 0.702135 0.101231
64 1 0.607126 0.662576 0.13338
35 1 0.898952 0.582387 0.0708393
40 1 0.847273 0.717489 0.0883277
590 2 0.72395 0.486354 0.129614
963 2 0.227067 0.832266 0.124279
555 2 0.220593 0.944346 0.0584277
38 1 0.17626 0.94914 0.0975923
542 2 0.177097 0.790895 0.0738984
597 2 0.0365322 0.937481 0.0785694
547 2 0.391616 0.851324 0.115814
537 2 0.319061 0.762255 0.093677
513 2 0.31864 0.0275054 0.0756158
95 1 0.517003 0.870151 0.0554528
545 2 0.555253 0.771044 0.0796989
468 1 0.478937 0.0499558 0.0913421
998 2 0.501446 0.744788 0.113375
21 1 0.648497 0.931355 0.107513
532 2 0.0207378 0.743375 0.0629291
98 1 0.963463 0.816824 0.0954364
598 2 0.66891 0.810018 0.129516
534 2 0.756827 0.849396 0.0979941
39 1 0.913798 0.867222 0.0592424
577 2 0.134871 0.0571906 0.141015
539 2 0.0323936 0.135947 0.166519
54 1 0.133358 0.00885804 0.177855
638 2 0.0947839 0.261552 0.150919
105 1 0.421518 0.264307 0.147513
68 1 0.468192 0.0788462 0.156507
112 1 0.265585 0.141576 0.15404
72 1 0.2895 0.967552 0.139851
59 1 0.601383 0.0707009 0.112562
541 2 0.787085 0.103636 0.105383
99 1 0.575443 0.177765 0.149141
566 2 0.738056 0.270328 0.10741
550 2 0.787918 0.974069 0.127778
93 1 0.941073 0.267041 0.153787
118 1 0.871346 0.0247209 0.160592
544 2 0.0675366 0.438083 0.144552
957 2 0.0359157 0.277191 0.188526
82 1 0.217825 0.401381 0.153117
636 2 0.051422 0.683346 0.141025
76 1 0.254383 0.247869 0.124757
671 2 0.505769 0.224883 0.186661
62 1 0.477712 0.400504 0.122053
557 2 0.519749 0.410717 0.183528
576 2 0.648252 0.328044 0.140421
100 1 0.693162 0.49153 0.166133
90 1 0.698415 0.246083 0.172509
60 1 0.810192 0.331075 0.141847
80 1 0.881197 0.484387 0.145974
125 1 0.147836 0.554259 0.166872
107 1 0.19802 0.696675 0.134506
553 2 0.0162032 0.773469 0.178675
97 1 0.298164 0.779481 0.160593
538 2 0.36455 0.546739 0.109473
551 2 0.353445 0.678967 0.12579
595 2 0.358796 0.458569 0.149949
519 2 0.476897 0.576296 0.135493
50 1 0.561154 0.458639 0.148159
116 1 0.476914 0.73318 0.155617
981 2 0.876803 0.601476 0.114939
83 1 0.897821 0.693976 0.163424
517 2 0.863854 0.854597 0.167451
642 2 0.0274011 0.611602 0.186876
88 1 0.99585 0.945311 0.159503
578 2 0.994972 0.981639 0.196163
53 1 0.0716963 0.932307 0.129928
141 1 0.163531 0.87089 0.158395
509 2 0.390904 0.898057 0.0798216
570 2 0.410069 0.906094 0.159851
587 2 0.485517 0.982429 0.12596
502 2 0.55662 0.872481 0.158501
14 1 0.712653 0.781834 0.164483
108 1 0.724911 0.947417 0.174866
104 1 0.980041 0.806245 0.133784
44 1 0.911489 0.924532 0.117965
10 1 0.826325 0.787223 0.126476
583 2 0.0430819 0.123096 0.205567
127 1 0.211582 0.0211766 0.217118
580 2 0.998284 0.197983 0.231682
569 2 0.178962 0.182265 0.182821
667 2 0.161264 0.156453 0.229024
536 2 0.533906 0.0355345 0.228203
74 1 0.366457 0.151967 0.180086
971 2 0.64514 0.0130164 0.146132
530 2 0.749155 0.103608 0.180146
117 1 0.72869 0.163056 0.137912
626 2 0.624321 0.15701 0.197504
109 1 0.91977 0.19323 0.187236
102 1 0.696474 0.0554764 0.215361
601 2 0.945797 0.114369 0.260665
628 2 0.956312 0.99328 0.233691
535 2 0.155141 0.402858 0.185653
585 2 0.233112 0.453118 0.226803
91 1 0.312203 0.472817 0.19017
611 2 0.295234 0.328741 0.213775
101 1 0.299655 0.318125 0.176857
609 2 0.453764 0.467235 0.212003
586 2 0.42382 0.252203 0.234019
55 1 0.606062 0.441808 0.229016
84 1 0.617625 0.532073 0.193
607 2 0.555467 0.312978 0.218896
670 2 0.667142 0.366997 0.197808
1 1 0.968413 0.416604 0.17891
157 1 0.811117 0.364313 0.179184
564 2 0.872333 0.544861 0.178367
582 2 0.0408184 0.404737 0.214042
87 1 0.12724 0.56783 0.215905
169 1 0.0870448 0.721998 0.219596
166 1 0.121965 0.43481 0.253944
144 1 0.169718 0.717572 0.175228
606 2 0.352543 0.585393 0.214757
593 2 0.296982 0.632565 0.17273
665 2 0.498028 0.63067 0.208152
115 1 0.38281 0.74722 0.228882
604 2 0.756252 0.648466 0.159988
556 2 0.457107 0.539149 0.174958
150 1 0.637075 0.733472 0.206854
647 2 0.583615 0.66478 0.173202
622 2 0.952319 0.541461 0.217038
94 1 0.943733 0.780612 0.24472
111 1 0.801844 0.669358 0.24031
122 1 0.166037 0.883092 0.201833
591 2 0.236433 0.703272 0.215872
563 2 0.152361 0.784948 0.246951
562 2 0.450613 0.00775718 0.190011
635 2 0.409793 0.770821 0.272357
120 1 0.293864 0.979333 0.177317
613 2 0.267922 0.876895 0.236552
66 1 0.318259 0.826812 0.198732
149 1 0.476087 0.781058 0.191676
540 2 0.606039 0.00471045 0.187256
572 2 0.57512 0.167406 0.235456
113 1 0.789307 0.771541 0.197295
632 2 0.894342 0.673068 0.209941
615 2 0.848323 0.971905 0.197104
596 2 0.970071 0.842301 0.214057
648 2 0.807474 0.865454 0.226355
128 1 0.233219 0.0223553 0.259184
652 2 0.135582 0.130259 0.275403
603 2 0.378111 0.0712302 0.219212
124 1 0.313315 0.0980456 0.289946
138 1 0.387413 0.235731 0.269396
140 1 0.256265 0.171108 0.257959
579 2 0.424703 0.0533553 0.256269
110 1 0.581002 0.0634525 0.271961
151 1 0.468508 0.151426 0.298614
129 1 0.717027 0.163553 0.259686
623 2 0.551891 0.242239 0.270745
679 2 0.656876 0.161998 0.295499
26 1 0.885136 0.106258 0.219963
176 1 0.0583671 0.0109558 0.266445
630 2 0.809725 0.0278055 0.246684
610 2 0.149293 0.290911 0.21582
618 2 0.12183 0.301325 0.277919
130 1 0.984124 0.341332 0.246831
608 2 0.25795 0.352895 0.252415
612 2 0.377135 0.443032 0.289763
592 2 0.709116 0.304195 0.238202
653 2 0.456303 0.39534 0.25726
161 1 0.759315 0.233033 0.207877
621 2 0.768562 0.444029 0.221176
637 2 0.664712 0.533705 0.256808
135 1 0.842605 0.238933 0.242393
567 2 0.90032 0.339857 0.210866
641 2 0.955084 0.4842 0.253166
634 2 0.212648 0.432494 0.28664
247 1 0.100834 0.675036 0.277039
121 1 0.248857 0.582972 0.246705
568 2 0.99785 0.640027 0.248306
651 2 0.367104 0.505574 0.252395
617 2 0.50201 0.511371 0.276491
697 2 0.210398 0.59854 0.290375
531 2 0.613192 0.618725 0.230969
675 2 0.681445 0.669726 0.278855
164 1 0.478444 0.617283 0.250192
619 2 0.569755 0.787946 0.244003
148 1 0.371401 0.613867 0.283898
152 1 0.842178 0.570089 0.271892
81 1 0.795334 0.792252 0.268929
691 2 0.822593 0.396812 0.255309
142 1 0.212999 0.859494 0.279289
616 2 0.108285 0.943192 0.235159
614 2 0.0538647 0.846619 0.285758
177 1 0.152533 0.955542 0.301933
69 1 0.409172 0.934057 0.230009
134 1 0.367254 0.90801 0.278189
672 2 0.27023 0.708075 0.263907
103 1 0.405885 0.82931 0.318211
131 1 0.583953 0.898954 0.21106
147 1 0.504235 0.903524 0.265618
195 1 0.480423 0.638173 0.321464
605 2 0.661929 0.958912 0.247849
625 2 0.898241 0.911317 0.267749
655 2 0.651296 0.825081 0.277832
119 1 0.115231 0.347456 0.316892
680 2 0.0297912 0.0389733 0.306613
662 2 0.88821 0.963084 0.330167
690 2 0.0522443 0.159253 0.34845
185 1 0.201177 0.0719482 0.324972
201 1 0.316463 0.20371 0.316178
183 1 0.455854 0.00718314 0.297307
190 1 0.592566 0.216293 0.359977
686 2 0.536939 0.231307 0.324616
238 1 0.542594 0.0576664 0.322442
172 1 0.896548 0.123096 0.29642
649 2 0.00225523 0.245327 0.296533
189 1 0.675596 0.154689 0.333508
123 1 0.796035 0.2203 0.286205
180 1 0.172199 0.455342 0.341295
145 1 0.0100701 0.399782 0.284384
179 1 0.114821 0.203309 0.316258
639 2 0.986538 0.458769 0.345892
126 1 0.410838 0.311055 0.321906
640 2 0.255456 0.27884 0.28847
656 2 0.361188 0.397276 0.351499
137 1 0.269868 0.411778 0.321109
657 2 0.539681 0.424123 0.325516
627 2 0.672902 0.348489 0.285144
67 1 0.65606 0.354574 0.345585
699 2 0.713947 0.283501 0.316875
643 2 0.492404 0.344824 0.35859
170 1 0.734454 0.542062 0.322687
160 1 0.876999 0.355394 0.291421
154 1 0.755405 0.47473 0.288774
158 1 0.858265 0.548718 0.344954
133 1 0.886112 0.192478 0.327706
664 2 0.971886 0.311509 0.336492
620 2 0.0757023 0.495386 0.311055
629 2 0.891007 0.497065 0.308048
178 1 0.975917 0.624883 0.306188
114 1 0.51818 0.350428 0.294765
168 1 0.392617 0.523177 0.322437
661 2 0.312404 0.538142 0.35712
720 2 0.18245 0.63101 0.344331
650 2 0.613949 0.534931 0.300287
146 1 0.549417 0.764394 0.331115
155 1 0.52241 0.700524 0.291756
198 1 0.698494 0.728982 0.329039
231 1 0.926662 0.709154 0.276367
700 2 0.998026 0.632288 0.349117
175 1 0.80582 0.653618 0.30883
682 2 0.978315 0.770248 0.315031
159 1 0.0660841 0.897515 0.32858
153 1 0.136983 0.76008 0.317867
221 1 0.216539 0.88264 0.338536
624 2 0.300261 0.73537 0.301863
658 2 0.313759 0.942154 0.315573
163 1 0.358214 0.853949 0.36228
696 2 0.467487 0.952241 0.337844
719 2 0.77323 0.987192 0.286356
724 2 0.608411 0.976892 0.298091
588 2 0.831874 0.804871 0.316647
673 2 0.691347 0.867607 0.320222
202 1 0.736257 0.0195722 0.32569
181 1 0.126966 0.158773 0.38949
660 2 0.146688 0.999372 0.359992
236 1 0.257508 0.117114 0.368861
687 2 0.270027 0.25401 0.345442
602 2 0.3986 0.140388 0.34262
136 1 0.478332 0.180059 0.381295
187 1 0.695518 0.188636 0.390982
698 2 0.692409 0.0766431 0.367175
633 2 0.690932 0.924237 0.390572
716 2 0.776742 0.253382 0.355717
749 2 0.841898 0.100654 0.356924
165 1 0.936481 0.206633 0.365235
715 2 0.98912 0.0276515 0.35527
677 2 0.24142 0.334664 0.385641
584 2 0.114924 0.407561 0.385305
106 1 0.092895 0.299492 0.360352
156 1 0.993102 0.504057 0.390722
211 1 0.0246976 0.279019 0.399843
678 2 0.39291 0.311629 0.392334
188 1 0.405306 0.468976 0.386179
143 1 0.45997 0.536698 0.355627
669 2 0.548144 0.40134 0.397096
692 2 0.761598 0.341944 0.384995
237 1 0.628154 0.496493 0.366418
194 1 0.814102 0.395164 0.329743
710 2 0.922165 0.380128 0.37482
709 2 0.840431 0.195229 0.397586
688 2 0.274334 0.467967 0.395269
196 1 0.124766 0.56173 0.3764
199 1 0.233526 0.754876 0.420939
200 1 0.0717617 0.669575 0.403803
207 1 0.366609 0.6892 0.350471
220 1 0.364407 0.619511 0.386167
645 2 0.589141 0.618306 0.346485
171 1 0.531452 0.566404 0.391485
631 2 0.656973 0.777079 0.369228
725 2 0.50241 0.695309 0.374244
209 1 0.81591 0.736577 0.385907
779 2 0.616225 0.668981 0.410779
644 2 0.785851 0.502448 0.378587
191 1 0.886628 0.610089 0.384677
674 2 0.6937 0.633262 0.368873
666 2 0.705136 0.535791 0.408828
225 1 0.0917925 0.778129 0.36058
212 1 0.230891 0.899205 0.379073
205 1 0.124233 0.868112 0.407512
712 2 0.217599 0.681007 0.379887
197 1 0.314329 0.0147252 0.349907
706 2 0.528683 0.0412132 0.366132
646 2 0.4454 0.98599 0.390828
741 2 0.356881 0.767886 0.398664
703 2 0.636091 0.933236 0.352456
717 2 0.503042 0.853085 0.369202
173 1 0.534033 0.798397 0.406276
676 2 0.840158 0.701001 0.348932
705 2 0.9469 0.823434 0.351058
654 2 0.992103 0.789156 0.391358
689 2 0.819802 0.0163798 0.396945
224 1 0.825657 0.90461 0.368867
213 1 0.353672 0.983045 0.45267
184 1 0.17447 0.214023 0.425493
791 2 0.17283 0.0695518 0.446927
182 1 0.451293 0.108512 0.415776
321 1 0.298323 0.195417 0.400031
162 1 0.577427 0.205246 0.414278
792 2 0.301413 0.14334 0.44057
193 1 0.74579 0.186518 0.431604
233 1 0.631909 0.204694 0.456021
718 2 0.877442 0.200781 0.460717
702 2 0.609448 0.0542462 0.402816
659 2 0.864692 0.0979335 0.435117
240 1 0.969537 0.105855 0.395612
772 2 0.032634 0.0754977 0.434802
242 1 0.179456 0.353495 0.443529
265 1 0.334128 0.293509 0.459462
767 2 0.0376939 0.27785 0.443714
167 1 0.412346 0.485153 0.429814
736 2 0.304288 0.346491 0.42238
713 2 0.45347 0.25096 0.438434
695 2 0.348 0.464457 0.479613
218 1 0.619769 0.359754 0.476309
132 1 0.531516 0.574578 0.445014
234 1 0.749264 0.306727 0.451664
216 1 0.684006 0.36399 0.419508
714 2 0.526119 0.387767 0.439627
685 2 0.694648 0.481788 0.455083
239 1 0.887832 0.296273 0.431621
217 1 0.837838 0.443581 0.417764
261 1 0.02701 0.420486 0.424585
275 1 0.9076 0.496909 0.453347
203 1 0.131056 0.545884 0.419389
186 1 0.0740487 0.477072 0.457493
222 1 0.140816 0.632088 0.455692
223 1 0.464456 0.671697 0.419326
296 1 0.311119 0.611793 0.428494
745 2 0.221251 0.489516 0.455325
707 2 0.370521 0.616655 0.464503
255 1 0.67893 0.660186 0.450072
206 1 0.706309 0.787008 0.419163
737 2 0.961721 0.577976 0.424015
723 2 0.799864 0.587016 0.436047
693 2 0.930555 0.671872 0.456085
681 2 0.136395 0.0190441 0.414627
257 1 0.297374 0.0102163 0.403434
284 1 0.108437 0.889112 0.447645
746 2 0.216972 0.766952 0.462769
174 1 0.372064 0.774008 0.446052
708 2 0.239698 0.897951 0.434158
733 2 0.415472 0.886474 0.422299
229 1 0.751922 0.921627 0.429491
232 1 0.556714 0.967448 0.434273
727 2 0.562726 0.772755 0.445947
683 2 0.677704 0.0528979 0.440383
246 1 0.865845 0.708617 0.421055
251 1 0.97057 0.940761 0.388669
684 2 0.926037 0.868626 0.421366
755 2 0.0586805 0.735881 0.439185
774 2 0.809875 0.794422 0.450133
763 2 0.155017 0.204734 0.465427
290 1 0.144183 0.0702118 0.508837
272 1 0.28406 0.118168 0.48405
711 2 0.0744871 0.0693248 0.47406
781 2 0.11505 0.254094 0.51261
208 1 0.475058 0.940425 0.476661
235 1 0.538506 0.0175993 0.509408
738 2 0.459361 0.0934013 0.460143
287 1 0.385649 0.967779 0.508162
742 2 0.435014 0.122837 0.505961
264 1 0.617336 0.0578029 0.473523
289 1 0.713332 0.0346334 0.516137
219 1 0.642386 0.193379 0.509204
734 2 0.752673 0.204366 0.482819
804 2 0.866672 0.0354978 0.503413
215 1 0.00697587 0.190433 0.483444
729 2 0.943297 0.160025 0.51981
759 2 0.845792 0.313242 0.520169
732 2 0.186813 0.376535 0.48654
244 1 0.98285 0.36202 0.516411
192 1 0.992725 0.501524 0.560562
315 1 0.107855 0.429627 0.539017
259 1 0.296933 0.257855 0.495745
269 1 0.472538 0.251849 0.480139
285 1 0.438081 0.35727 0.505675
204 1 0.527458 0.493045 0.476136
721 2 0.587867 0.364708 0.515692
744 2 0.80256 0.474558 0.540626
739 2 0.865111 0.365387 0.4728
740 2 0.0296524 0.364239 0.472572
260 1 0.727779 0.390762 0.501812
278 1 0.0948208 0.59822 0.538185
762 2 0.168322 0.624871 0.502139
785 2 0.112153 0.497145 0.498629
701 2 0.988628 0.562762 0.485147
766 2 0.343832 0.599596 0.502772
249 1 0.467255 0.506666 0.519183
752 2 0.257369 0.732692 0.519516
258 1 0.283858 0.434124 0.514817
227 1 0.517799 0.649572 0.49133
300 1 0.681827 0.573929 0.491339
314 1 0.617366 0.755991 0.49078
722 2 0.816271 0.624165 0.475532
754 2 0.732863 0.687797 0.516996
230 1 0.850284 0.507944 0.499768
663 2 0.91889 0.711206 0.498669
747 2 0.156774 0.921043 0.480336
757 2 0.0305945 0.0341028 0.531436
735 2 0.327479 0.842331 0.482005
726 2 0.0683519 0.736321 0.481301
793 2 0.0709722 0.752347 0.522743
770 2 0.0135645 0.953568 0.490083
214 1 0.464814 0.810466 0.498244
210 1 0.367836 0.855262 0.534412
731 2 0.474778 0.686871 0.531678
309 1 0.664997 0.901651 0.5049
753 2 0.656437 0.867543 0.459089
282 1 0.770573 0.963505 0.466799
279 1 0.587124 0.823169 0.535171
704 2 0.910289 0.0282469 0.467922
250 1 0.955029 0.849784 0.464863
668 2 0.784553 0.830306 0.496191
799 2 0.13737 0.00349044 0.558788
277 1 0.901845 0.085354 0.561254
302 1 0.123836 0.21376 0.556867
310 1 0.315563 0.0226271 0.537636
263 1 0.444622 0.107031 0.554119
798 2 0.507109 0.965304 0.546756
728 2 0.264094 0.169647 0.527158
764 2 0.300577 0.190354 0.565734
778 2 0.596978 0.084289 0.544092
348 1 0.533005 0.0110957 0.584395
809 2 0.60392 0.155988 0.574514
824 2 0.776614 0.0386145 0.554441
294 1 0.959708 0.282818 0.580832
308 1 0.794431 0.157295 0.525113
320 1 0.785792 0.197867 0.564796
286 1 0.87043 0.0808589 0.602434
295 1 0.972943 0.250154 0.546239
298 1 0.0908337 0.357996 0.569922
357 1 0.229088 0.318549 0.539586
366 1 0.402098 0.264526 0.533622
228 1 0.377082 0.423471 0.548728
270 1 0.557179 0.294771 0.545778
274 1 0.633314 0.304654 0.580015
761 2 0.722939 0.327323 0.547602
254 1 0.511458 0.431366 0.578038
694 2 0.62657 0.439838 0.549222
765 2 0.898999 0.392423 0.561978
811 2 0.231998 0.432799 0.569375
730 2 0.9859 0.697612 0.5631
283 1 0.0795285 0.561203 0.585667
748 2 0.253323 0.604931 0.545455
266 1 0.419953 0.885056 0.575828
267 1 0.292949 0.649748 0.590881
775 2 0.190957 0.722903 0.56573
322 1 0.458094 0.554986 0.555185
288 1 0.357391 0.745616 0.564686
273 1 0.612024 0.729375 0.574888
823 2 0.609865 0.593993 0.526082
245 1 0.724757 0.678868 0.55774
350 1 0.462194 0.690629 0.590494
750 2 0.62997 0.563066 0.57786
262 1 0.932646 0.583381 0.529648
790 2 0.831492 0.579517 0.57475
795 2 0.758199 0.455102 0.581166
306 1 0.833975 0.758455 0.581239
243 1 0.958408 0.945189 0.574083
256 1 0.0165098 0.857772 0.550522
751 2 0.228654 0.882757 0.554711
780 2 0.111961 0.909353 0.520709
832 2 0.279546 0.0104226 0.580819
777 2 0.246889 0.804677 0.596391
372 1 0.609663 0.887459 0.571409
783 2 0.744523 0.893179 0.542743
789 2 0.884744 0.966235 0.534611
865 2 0.871146 0.787296 0.534788
291 1 0.808128 0.951955 0.583307
281 1 0.042954 0.0847289 0.577996
802 2 0.164587 0.229311 0.645487
871 2 0.0152629 0.102714 0.631359
788 2 0.119214 0.0213227 0.614367
800 2 0.0920428 0.892344 0.63651
319 1 0.394536 0.0927896 0.598517
803 2 0.260938 0.0864269 0.619733
376 1 0.402541 0.269079 0.640632
326 1 0.660351 0.997941 0.623071
758 2 0.577019 0.146713 0.614098
304 1 0.760719 0.174653 0.625322
268 1 0.71095 0.08534 0.592691
817 2 0.860063 0.062712 0.642766
349 1 0.120847 0.1761 0.604761
782 2 0.223955 0.306426 0.586757
891 2 0.217273 0.361614 0.632336
341 1 0.349016 0.382574 0.618454
368 1 0.198604 0.475872 0.607978
299 1 0.384633 0.312154 0.577053
292 1 0.323318 0.227841 0.607952
794 2 0.487874 0.237669 0.597718
311 1 0.645601 0.283603 0.627156
769 2 0.626913 0.42044 0.606282
328 1 0.499601 0.373768 0.617901
845 2 0.776266 0.321596 0.65325
776 2 0.90225 0.465252 0.6011
331 1 0.930948 0.228717 0.616724
313 1 0.78863 0.288544 0.59866
271 1 0.901302 0.366234 0.634102
843 2 0.958345 0.625266 0.59881
825 2 0.0531021 0.330608 0.610097
821 2 0.133606 0.492252 0.648532
850 2 0.126508 0.605537 0.623353
796 2 0.110288 0.716761 0.598104
860 2 0.267889 0.574033 0.63919
743 2 0.361886 0.760436 0.614078
241 1 0.371493 0.482871 0.581779
293 1 0.544509 0.555232 0.613064
226 1 0.615446 0.697591 0.617951
813 2 0.766038 0.433926 0.625252
826 2 0.763221 0.635334 0.604083
840 2 0.710539 0.64946 0.643476
797 2 0.859524 0.573853 0.631711
829 2 0.0242863 0.498939 0.622875
280 1 0.119893 0.881247 0.597824
822 2 0.963922 0.792314 0.592248
760 2 0.177962 0.763668 0.631867
332 1 0.947981 0.838683 0.634925
343 1 0.377224 0.921758 0.620671
818 2 0.237619 0.907375 0.636553
374 1 0.514041 0.00198848 0.625853
819 2 0.47524 0.820617 0.648059
325 1 0.500505 0.828989 0.605569
297 1 0.688607 0.846714 0.600756
324 1 0.59711 0.750606 0.657007
849 2 0.69317 0.862218 0.647698
784 2 0.971163 0.96548 0.611714
301 1 0.815207 0.923829 0.620116
808 2 0.816361 0.73859 0.624158
305 1 0.862744 0.929932 0.659143
864 2 0.964162 0.685347 0.636046
416 1 0.245978 0.125491 0.704957
346 1 0.249531 0.986537 0.666308
863 2 0.134825 0.0685537 0.6555
361 1 0.901052 0.062027 0.718309
787 2 0.291034 0.131216 0.663342
874 2 0.426954 0.992235 0.656593
316 1 0.35309 0.985755 0.694271
812 2 0.52 0.233587 0.680635
333 1 0.590861 0.0632835 0.674989
342 1 0.662037 0.00132747 0.706808
353 1 0.712294 0.0567356 0.654184
276 1 0.480987 0.137457 0.644155
335 1 0.655595 0.20648 0.664345
807 2 0.936939 0.0780563 0.682212
827 2 0.855776 0.199846 0.672128
365 1 0.763568 0.0942995 0.690658
370 1 0.9095 0.20393 0.709801
771 2 0.22143 0.314392 0.677055
861 2 0.100447 0.199443 0.688751
386 1 0.0873399 0.409592 0.685948
862 2 0.486247 0.382163 0.664617
834 2 0.480394 0.347423 0.713029
801 2 0.369028 0.283167 0.679824
364 1 0.389879 0.576198 0.666796
248 1 0.633664 0.34929 0.676064
859 2 0.645286 0.159868 0.709395
340 1 0.632326 0.459348 0.649794
303 1 0.958097 0.341616 0.671055
345 1 0.995958 0.204712 0.656614
387 1 0.0434498 0.305239 0.717081
816 2 0.742831 0.272867 0.693385
838 2 0.0681937 0.354838 0.647119
814 2 0.308687 0.427777 0.660212
842 2 0.309801 0.699055 0.661187
836 2 0.110496 0.670395 0.661014
253 1 0.43843 0.489961 0.63396
872 2 0.690615 0.57331 0.69688
815 2 0.450621 0.647497 0.634709
831 2 0.475417 0.708424 0.676214
768 2 0.518046 0.510401 0.683644
773 2 0.796386 0.465494 0.672954
847 2 0.585469 0.599438 0.655171
873 2 0.829429 0.616594 0.683058
355 1 0.0822348 0.565041 0.682874
334 1 0.950937 0.480767 0.65953
379 1 0.964185 0.660804 0.673463
867 2 0.167512 0.858108 0.674402
252 1 0.992504 0.813087 0.673233
810 2 0.0357247 0.973527 0.666576
347 1 0.287962 0.769025 0.695875
869 2 0.224263 0.913089 0.706856
756 2 0.349879 0.862762 0.66558
317 1 0.454793 0.828945 0.698786
854 2 0.73352 0.912699 0.682859
327 1 0.577498 0.903967 0.67666
358 1 0.781036 0.765215 0.670822
846 2 0.892546 0.938038 0.694798
389 1 0.771718 0.699787 0.710514
359 1 0.0324704 0.163958 0.732942
930 2 0.121638 0.0210584 0.702319
921 2 0.0902962 0.0773197 0.762671
900 2 0.435797 0.118899 0.687361
323 1 0.371976 0.0600581 0.732017
307 1 0.475559 0.0416212 0.756953
880 2 0.2098 0.168268 0.748967
390 1 0.775332 0.320449 0.729812
837 2 0.610066 0.129534 0.750154
449 1 0.591438 0.219 0.777512
443 1 0.50402 0.19799 0.728104
882 2 0.797464 0.990233 0.773524
830 2 0.91219 0.0704804 0.756731
853 2 0.753296 0.107649 0.737964
385 1 0.728092 0.240318 0.761307
338 1 0.228817 0.276541 0.715158
835 2 0.28468 0.460255 0.751102
848 2 0.166752 0.435422 0.727056
990 2 0.11477 0.304703 0.756235
851 2 0.354532 0.203419 0.735329
373 1 0.413651 0.182157 0.770534
858 2 0.381794 0.527323 0.723032
901 2 0.500592 0.462497 0.747901
375 1 0.624581 0.287441 0.732167
422 1 0.894175 0.387834 0.754893
839 2 0.901844 0.347891 0.707997
855 2 0.0205476 0.487748 0.715873
410 1 0.930407 0.251364 0.751202
460 1 0.787046 0.340882 0.794293
875 2 0.984157 0.529453 0.750848
424 1 0.256273 0.566937 0.689523
473 1 0.15611 0.67469 0.70508
881 2 0.231082 0.594811 0.733763
805 2 0.156232 0.575031 0.766884
896 2 0.333406 0.414373 0.695796
362 1 0.376893 0.656912 0.705055
844 2 0.633723 0.39811 0.707447
360 1 0.527377 0.637264 0.709031
397 1 0.784026 0.47457 0.720525
430 1 0.689236 0.68675 0.743202
935 2 0.618196 0.530945 0.733192
423 1 0.90098 0.58963 0.71523
898 2 0.808825 0.600936 0.754482
384 1 0.0623876 0.665966 0.735465
377 1 0.0234483 0.95194 0.73904
879 2 0.215105 0.719791 0.763561
852 2 0.191937 0.966464 0.747553
398 1 0.0564212 0.896893 0.704678
420 1 0.14239 0.789929 0.731461
339 1 0.538799 0.950173 0.722811
318 1 0.329036 0.871515 0.738838
820 2 0.32513 0.72644 0.73645
396 1 0.471566 0.804795 0.741933
897 2 0.593506 0.857408 0.766453
833 2 0.407506 0.752577 0.774997
909 2 0.6055 0.783236 0.704098
886 2 0.719193 0.828611 0.729658
337 1 0.675924 0.963793 0.746146
330 1 0.862 0.877717 0.727099
892 2 0.996755 0.746147 0.704979
870 2 0.904616 0.728816 0.736283
413 1 0.0983707 0.303462 0.823592
363 1 0.305501 0.0137802 0.765215
412 1 0.376193 0.990887 0.822793
928 2 0.340349 0.152742 0.808119
354 1 0.606789 0.0520961 0.782921
884 2 0.711566 0.190623 0.796683
429 1 0.486505 0.303889 0.794823
462 1 0.491758 0.145762 0.799493
895 2 0.0532399 0.209396 0.789824
329 1 0.942038 0.306879 0.787816
356 1 0.887424 0.0561335 0.802192
457 1 0.0223538 0.0956544 0.823225
876 2 0.915878 0.362243 0.826478
441 1 0.171625 0.396398 0.800131
476 1 0.195621 0.309019 0.852337
408 1 0.280293 0.290935 0.771114
828 2 0.469029 0.318832 0.755875
984 2 0.315465 0.305229 0.807487
380 1 0.603759 0.407966 0.771812
312 1 0.367813 0.405676 0.778758
417 1 0.654105 0.393859 0.811028
889 2 0.72683 0.483024 0.768802
414 1 0.848871 0.509653 0.79993
893 2 0.0580207 0.415011 0.772356
806 2 0.745218 0.271059 0.845001
344 1 0.108646 0.713581 0.803481
912 2 0.15339 0.566668 0.805191
877 2 0.257613 0.702343 0.799911
841 2 0.328032 0.584657 0.770823
857 2 0.380926 0.61598 0.804504
400 1 0.544568 0.819187 0.804696
367 1 0.4529 0.621657 0.745089
910 2 0.469458 0.536247 0.78069
391 1 0.551799 0.680592 0.772325
915 2 0.518058 0.667481 0.817025
405 1 0.594673 0.519714 0.800348
972 2 0.000249172 0.635238 0.778292
351 1 0.992994 0.628051 0.819207
381 1 0.686778 0.653856 0.805489
404 1 0.780328 0.707483 0.780113
411 1 0.895865 0.87677 0.76647
856 2 0.834907 0.642263 0.816882
933 2 0.750782 0.492803 0.837969
942 2 0.0546012 0.813514 0.766397
425 1 0.101471 0.926706 0.824008
916 2 0.195088 0.173124 0.801641
406 1 0.0198341 0.799973 0.82423
924 2 0.450817 0.923916 0.778452
941 2 0.256181 0.857339 0.780677
407 1 0.201919 0.0161289 0.796917
383 1 0.408526 0.762855 0.810029
925 2 0.587935 0.965637 0.81886
382 1 0.747222 0.845521 0.767272
421 1 0.750492 0.97772 0.807741
352 1 0.0242103 0.971681 0.79163
899 2 0.903375 0.901082 0.804557
392 1 0.936648 0.768156 0.792064
497 1 0.9085 0.00899766 0.840334
954 2 0.177963 0.0372244 0.841258
956 2 0.157791 0.14398 0.879154
483 1 0.983227 0.0861602 0.871903
428 1 0.168453 0.986459 0.894089
786 2 0.462036 0.17759 0.837008
452 1 0.353442 0.0853927 0.854505
463 1 0.421015 0.230996 0.876941
369 1 0.621893 0.0947949 0.835369
481 1 0.59605 0.250627 0.818293
868 2 0.602172 0.210338 0.869179
964 2 0.907097 0.206401 0.82638
976 2 0.793364 0.112526 0.83352
435 1 0.884119 0.190469 0.86869
953 2 0.745856 0.120173 0.876028
30 1 0.855636 0.999543 0.886202
393 1 0.025849 0.485834 0.80746
968 2 0.027521 0.257691 0.856385
426 1 0.0701027 0.430076 0.839897
388 1 0.30018 0.456879 0.816964
418 1 0.212838 0.467189 0.849651
378 1 0.47591 0.44018 0.814147
434 1 0.491825 0.321705 0.842821
934 2 0.307126 0.225828 0.839229
501 2 0.329008 0.338125 0.865919
883 2 0.576511 0.486548 0.850464
949 2 0.634511 0.358086 0.867274
440 1 0.510179 0.598286 0.877479
955 2 0.792458 0.404405 0.866757
431 1 0.968602 0.389671 0.867558
966 2 0.931337 0.53701 0.847479
371 1 0.237518 0.609512 0.83948
905 2 0.0470556 0.618538 0.855448
461 1 0.00992287 0.75918 0.87661
932 2 0.393153 0.547373 0.853017
878 2 0.288589 0.655969 0.872666
445 1 0.573509 0.729946 0.86923
913 2 0.40169 0.689201 0.845201
919 2 0.637402 0.662781 0.838792
975 2 0.713635 0.525974 0.880152
939 2 0.549981 0.758887 0.910257
944 2 0.912982 0.717746 0.843732
394 1 0.820765 0.857207 0.832442
395 1 0.800729 0.627134 0.856018
890 2 0.167902 0.766426 0.846196
438 1 0.130749 0.838746 0.900355
894 2 0.244217 0.879144 0.871268
940 2 0.394204 0.772529 0.879117
937 2 0.554494 0.892904 0.872209
22 1 0.265375 0.855191 0.81539
401 1 0.396235 0.916236 0.856535
920 2 0.713109 0.822407 0.80303
887 2 0.661987 0.823207 0.842657
917 2 0.507793 0.832903 0.838237
922 2 0.7495 0.983819 0.848189
336 1 0.494035 0.023012 0.850943
453 1 0.0716309 0.925717 0.864596
911 2 0.930517 0.870106 0.865181
885 2 0.771948 0.871324 0.873245
929 2 0.0710204 0.280484 0.931585
451 1 0.148749 0.120478 0.915368
996 2 0.0191701 0.188494 0.900703
970 2 0.288888 0.0881535 0.898262
995 2 0.269705 0.270347 0.934344
403 1 0.269626 0.253342 0.89779
474 1 0.37845 0.180605 0.921671
923 2 0.425862 0.0169641 0.927158
493 1 0.551501 0.267019 0.903994
866 2 0.443465 0.98444 0.888092
399 1 0.523165 0.0800258 0.90243
484 1 0.607968 0.0142676 0.930684
427 1 0.876778 0.134513 0.917344
450 1 0.693045 0.194153 0.924552
500 1 0.738885 0.0770404 0.95138
437 1 0.959851 0.0279428 0.945678
47 1 0.999716 0.473074 0.919882
906 2 0.119816 0.343272 0.896092