ITEM: TIMESTEP
3710
ITEM: NUMBER OF ATOMS
1000
ITEM: BOX BOUNDS pp pp pp
0.0000000000000000e+00 6.2996052494743662e+00
0.0000000000000000e+00 6.2996052494743662e+00
0.0000000000000000e+00 2.5198420997897465e+01
ITEM: ATOMS id type xs ys zs
502 2 0.0708696 0.947893 0.0490838
11 1 0.0993709 0.103087 0.0523751
951 2 0.200938 0.999361 0.029985
12 1 0.404277 0.00126335 0.0454818
58 1 0.500236 0.115065 0.0311597
522 2 0.429242 0.0131056 0.9978
983 2 0.665282 0.129399 0.030094
503 2 0.786912 -5.72311e-05 0.0337083
504 2 0.63049 0.943557 0.031703
31 1 0.90114 0.190716 0.981909
485 1 0.828638 0.135232 0.0309424
510 2 0.190323 0.347054 0.0503207
992 2 0.0682279 0.39567 0.0220728
487 1 0.035624 0.145284 0.0125854
13 1 0.273458 0.126487 0.051994
518 2 0.270733 0.415682 0.0143926
512 2 0.376643 0.248048 0.0336778
489 1 0.489717 0.161816 0.989808
484 1 0.790939 0.419864 0.989221
33 1 0.592294 0.294543 0.0146513
514 2 0.674721 0.519166 0.0147182
977 2 0.0837415 0.247987 0.0392582
985 2 0.78702 0.274973 0.0440105
981 2 0.94256 0.369024 0.039196
490 1 0.943388 0.303596 0.99954
511 2 0.0339848 0.532987 0.027304
540 2 0.109886 0.798846 0.0350242
545 2 0.208588 0.525598 0.0427416
70 1 0.118852 0.657112 0.0131105
516 2 0.20559 0.532967 0.00477015
963 2 0.360017 0.313068 0.999971
18 1 0.327898 0.624346 0.0187563
519 2 0.552907 0.60925 0.0587989
524 2 0.693679 0.667145 0.0231886
4 1 0.482264 0.58716 0.0085649
15 1 0.793037 0.433798 0.0444533
45 1 0.854591 0.610718 0.0351992
10 1 0.922668 0.506972 0.057357
100 1 0.989624 0.690855 0.0361111
544 2 0.142781 0.852085 0.99824
525 2 0.234386 0.867586 0.0498617
75 1 0.9512 0.836795 0.0439954
47 1 0.239871 0.745006 0.0113508
3 1 0.447898 0.715797 0.0365035
27 1 0.389027 0.876231 0.0338892
997 2 0.450544 0.770279 0.00274277
9 1 0.575128 0.777425 0.0260815
976 2 0.887864 0.889401 0.00858756
29 1 0.71625 0.83117 0.0194971
5 1 0.948447 0.0339096 0.0327539
30 1 0.989083 0.782761 0.00936389
37 1 0.214723 -0.000897562 0.0659154
51 1 0.158328 0.186991 0.0793989
530 2 0.0198905 0.108633 0.0949678
526 2 0.458264 0.987148 0.0857316
36 1 0.311612 0.982832 0.0978641
52 1 0.472368 0.0553107 0.117285
506 2 0.448406 0.166841 0.0735361
14 1 0.607678 0.217859 0.0581745
528 2 0.577682 0.144651 0.0924557
508 2 0.584004 0.0656577 0.0609852
59 1 0.727595 0.140936 0.106357
521 2 0.946824 0.190001 0.0492031
529 2 0.741047 0.135192 0.065998
35 1 0.0221425 0.322786 0.0699223
7 1 0.313223 0.246897 0.0760965
56 1 0.342441 0.337067 0.117821
61 1 0.210504 0.368023 0.08684
517 2 0.365532 0.393935 0.0807841
538 2 0.470776 0.311487 0.0556407
49 1 0.59827 0.444735 0.0459166
513 2 0.807215 0.567303 0.0765363
533 2 0.790881 0.260977 0.0865902
559 2 0.683263 0.382755 0.0695248
509 2 0.865482 0.385662 0.0767064
89 1 1.00207 0.423692 0.0964755
40 1 0.0668755 0.447925 0.0592947
38 1 0.247448 0.620776 0.103889
564 2 0.079783 0.612049 0.0605651
23 1 0.4151 0.670718 0.0730671
42 1 0.283405 0.598321 0.069562
537 2 0.403187 0.537281 0.0959864
43 1 0.375192 0.474109 0.047069
547 2 0.373115 0.720012 0.104062
50 1 0.701316 0.585093 0.0544967
998 2 0.5138 0.485922 0.0761695
539 2 0.747511 0.587446 0.116543
543 2 0.590155 0.683229 0.0968473
39 1 0.984635 0.570982 0.0882676
549 2 0.68692 0.730512 0.0651206
542 2 0.163177 0.891153 0.090412
55 1 0.00281172 0.94288 0.0954007
550 2 0.178496 0.740655 0.075479
546 2 0.325155 0.83421 0.0773243
28 1 0.487662 0.885549 0.0625912
523 2 0.553715 0.764352 0.0627587
548 2 0.677709 0.884146 0.0722724
572 2 0.493316 0.809574 0.105698
505 2 0.804581 0.775486 0.0456014
534 2 0.890307 0.971925 0.0656268
69 1 0.0236639 0.768524 0.0765991
551 2 0.192701 0.0357338 0.139558
555 2 0.0481287 0.10414 0.131976
532 2 0.32143 0.135202 0.106099
552 2 0.516832 0.24435 0.126331
53 1 0.375536 0.182213 0.146459
77 1 0.17293 0.181408 0.117957
527 2 0.626835 1.00074 0.0923817
54 1 0.609394 0.100016 0.129369
34 1 0.946168 0.274585 0.100933
80 1 0.868825 0.125223 0.0786712
99 1 0.82955 0.236889 0.125059
65 1 0.134061 0.375868 0.123468
86 1 0.144108 0.510593 0.0896669
531 2 0.254338 0.470656 0.12021
556 2 0.189616 0.353046 0.156784
63 1 0.469313 0.297503 0.0925673
62 1 0.446463 0.480941 0.130667
557 2 0.496397 0.415688 0.170192
558 2 0.561345 0.420574 0.106314
562 2 0.585295 0.55984 0.129019
553 2 0.637872 0.281488 0.0955698
88 1 0.709612 0.426134 0.112687
84 1 0.759009 0.345635 0.157935
60 1 0.964998 0.317182 0.170057
535 2 0.943186 0.364274 0.1341
41 1 0.146247 0.561287 0.143465
570 2 0.1815 0.744407 0.132157
66 1 0.944052 0.571654 0.14159
541 2 0.0781068 0.679224 0.159891
91 1 0.326022 0.595496 0.141416
536 2 0.46197 0.64663 0.133527
116 1 0.403609 0.518462 0.170783
68 1 0.643134 0.681715 0.145008
44 1 0.764505 0.821617 0.142689
563 2 0.811074 0.631722 0.161087
93 1 0.528789 0.795595 0.145624
560 2 0.0958831 0.654135 0.105386
565 2 0.89311 0.678013 0.0699952
90 1 0.799155 0.473576 0.14458
64 1 0.87478 0.497025 0.110617
26 1 0.174339 0.0474798 0.100096
71 1 0.0199153 0.785516 0.115494
571 2 0.388524 0.0147484 0.146308
48 1 0.355125 0.843987 0.121888
567 2 0.412825 0.870052 0.163871
72 1 0.319706 0.749573 0.146896
97 1 0.222622 0.886802 0.130349
73 1 0.634279 0.873378 0.122545
98 1 0.477503 0.921714 0.128579
569 2 0.646655 0.918364 0.160624
78 1 0.732854 0.0194109 0.130652
573 2 0.781048 0.985603 0.0948987
574 2 0.843859 0.838313 0.0807562
76 1 0.0837259 0.921724 0.128661
74 1 0.715989 0.731744 0.109028
575 2 0.890949 0.886803 0.116147
125 1 0.810209 0.962562 0.158293
600 2 0.900485 0.0704354 0.118459
576 2 0.127962 0.109951 0.17373
106 1 0.115664 0.172562 0.210733
82 1 0.271392 0.0449559 0.173451
605 2 0.995263 0.0228575 0.166513
601 2 0.0811938 0.943458 0.196964
83 1 0.501147 0.161974 0.170752
581 2 0.231995 0.210775 0.168104
602 2 0.391776 0.0309068 0.21313
577 2 0.667351 0.0703168 0.184304
554 2 0.677337 0.244967 0.134491
578 2 0.634222 0.205452 0.208397
104 1 0.816252 0.114416 0.207716
604 2 0.993341 0.177343 0.182694
598 2 0.952316 0.202541 0.141965
599 2 0.868843 0.981733 0.188966
610 2 0.181941 0.4389 0.203578
611 2 0.29406 0.42764 0.239271
561 2 0.269097 0.489415 0.161817
57 1 0.346309 0.334751 0.155988
92 1 0.641461 0.44204 0.140972
109 1 0.75868 0.332437 0.198661
112 1 0.608569 0.289555 0.171753
579 2 0.745977 0.200805 0.176968
94 1 0.870991 0.448214 0.180164
85 1 0.0594689 0.45055 0.167166
584 2 0.815168 0.454074 0.215327
585 2 0.102067 0.318812 0.19595
81 1 0.100796 0.241288 0.145176
590 2 0.173321 0.578352 0.184716
595 2 0.0946917 0.703574 0.210558
96 1 0.923984 0.743732 0.15882
121 1 0.902885 0.740474 0.201727
615 2 0.961934 0.480282 0.207408
607 2 0.336074 0.571081 0.214344
591 2 0.339651 0.669193 0.181183
592 2 0.483781 0.632413 0.192573
122 1 0.27739 0.768679 0.206508
586 2 0.462425 0.470482 0.209332
589 2 0.709907 0.482291 0.182361
113 1 0.667899 0.628632 0.192604
587 2 0.570543 0.555122 0.167929
614 2 0.662304 0.777 0.174589
588 2 0.979099 0.599778 0.181481
95 1 0.882783 0.680968 0.117081
120 1 0.790651 0.81028 0.185083
566 2 0.212732 0.795854 0.171025
596 2 0.0359305 0.801058 0.181414
101 1 0.129241 0.91711 0.162711
102 1 0.263856 0.919772 0.203505
67 1 0.511566 0.780085 0.185224
597 2 0.477915 0.99903 0.176823
622 2 0.425982 0.874645 0.206068
568 2 0.602549 0.828498 0.209574
593 2 0.724942 0.960905 0.202558
79 1 0.849666 0.11716 0.161475
103 1 0.572753 0.00569944 0.20849
580 2 0.965406 0.887951 0.156882
105 1 0.943935 0.879246 0.211316
582 2 0.219905 0.0650547 0.2099
606 2 0.131269 0.13841 0.246594
137 1 0.225843 0.27962 0.212661
152 1 0.251926 0.893872 0.250456
107 1 0.32563 0.0399127 0.258447
108 1 0.355458 0.158255 0.190199
603 2 0.500268 0.172124 0.219466
132 1 0.273265 0.250155 0.256648
128 1 0.323853 0.149601 0.231415
647 2 0.450324 0.0332551 0.283784
124 1 0.85142 0.00480095 0.234723
134 1 0.618208 0.211987 0.247336
130 1 0.758075 0.993536 0.26863
129 1 0.567062 0.0710856 0.259478
110 1 0.974185 0.0829828 0.215325
150 1 0.994668 0.0405578 0.254125
135 1 0.805013 0.236432 0.236804
136 1 0.0744527 0.488135 0.28947
140 1 0.078455 0.389661 0.238826
87 1 0.326304 0.381004 0.195777
608 2 0.456361 0.465115 0.246465
612 2 0.239649 0.471783 0.283278
632 2 0.42315 0.302557 0.228557
583 2 0.500074 0.285538 0.195424
139 1 0.619844 0.424418 0.208639
119 1 0.625112 0.477189 0.259046
634 2 0.561766 0.344943 0.259709
609 2 0.895409 0.29014 0.212547
639 2 0.70303 0.565099 0.229582
145 1 0.926525 0.38301 0.237891
126 1 0.965782 0.196553 0.239608
635 2 0.709885 0.350878 0.23456
111 1 0.178055 0.567031 0.222612
616 2 0.197765 0.698749 0.245421
617 2 0.155402 0.524972 0.257038
641 2 0.996172 0.73988 0.275691
642 2 0.111666 0.638766 0.278255
117 1 0.310447 0.588768 0.255016
613 2 0.39674 0.707033 0.223893
148 1 0.43112 0.714944 0.276358
114 1 0.516713 0.611458 0.23636
618 2 0.683045 0.714281 0.225564
141 1 0.964946 0.614786 0.225044
115 1 0.827905 0.587675 0.201834
166 1 0.806771 0.524058 0.252225
619 2 0.764336 0.658869 0.263269
146 1 0.843991 0.710585 0.231917
621 2 0.139893 0.832318 0.224518
625 2 0.998347 0.777121 0.237954
650 2 0.132511 0.979012 0.237214
172 1 0.14149 0.850436 0.272715
127 1 0.488233 0.958732 0.239386
118 1 0.520314 0.778562 0.244832
147 1 0.396148 0.851333 0.25253
594 2 0.793298 0.851237 0.224449
123 1 0.644515 0.925782 0.242562
623 2 0.718202 0.0772077 0.237299
624 2 0.509976 0.891821 0.27599
649 2 0.884263 0.866541 0.252965
626 2 0.13563 0.0164374 0.28094
157 1 0.221172 0.160432 0.284875
651 2 0.103089 0.170168 0.31557
652 2 0.244095 0.0732201 0.317076
133 1 0.466686 0.226692 0.259438
153 1 0.367745 0.974513 0.322096
158 1 0.372623 0.223752 0.299181
628 2 0.548143 0.171535 0.298647
629 2 0.681323 0.970614 0.326888
164 1 0.622222 0.136726 0.335557
160 1 0.710858 0.159958 0.273973
630 2 0.861641 0.118141 0.264541
131 1 0.889821 0.219682 0.306246
151 1 0.983023 0.0962144 0.289079
155 1 0.853258 0.928969 0.305611
655 2 0.80455 0.092032 0.327031
180 1 0.843799 0.960478 0.340822
631 2 0.0865026 0.494767 0.340046
637 2 0.0811764 0.231754 0.276576
156 1 0.0203849 0.30484 0.312026
657 2 0.219562 0.33037 0.297487
138 1 0.386074 0.452603 0.317736
162 1 0.177169 0.571154 0.316153
163 1 0.35244 0.374224 0.271294
658 2 0.473804 0.237794 0.363067
188 1 0.382418 0.312241 0.33939
633 2 0.505203 0.34927 0.312945
169 1 0.632169 0.379171 0.289952
638 2 0.484868 0.453094 0.284637
640 2 0.906725 0.264989 0.267956
165 1 0.75306 0.269612 0.295799
161 1 0.91735 0.417153 0.291862
660 2 0.8246 0.257479 0.341549
665 2 0.802615 0.377896 0.268038
185 1 0.790767 0.469986 0.339276
167 1 0.014585 0.59732 0.311686
636 2 0.985104 0.558658 0.260257
661 2 0.924861 0.572155 0.343473
667 2 0.192671 0.714033 0.310575
142 1 0.388751 0.56148 0.289599
168 1 0.356443 0.692448 0.314965
662 2 0.248898 0.421041 0.335594
672 2 0.278833 0.752417 0.276312
143 1 0.537031 0.589202 0.279933
144 1 0.618313 0.72551 0.278257
173 1 0.522352 0.747296 0.306381
170 1 0.627088 0.65593 0.323702
620 2 0.878746 0.60501 0.286337
171 1 0.952422 0.731417 0.321027
195 1 0.757669 0.694742 0.302172
645 2 0.735159 0.52772 0.290994
666 2 0.783563 0.619838 0.336595
671 2 0.0713329 0.992254 0.325125
197 1 0.10299 0.833786 0.311851
627 2 0.276445 0.951476 0.289003
648 2 0.373723 0.846834 0.295225
177 1 0.256763 0.85977 0.319552
198 1 0.432684 0.848377 0.34428
149 1 0.596305 0.838463 0.33958
644 2 0.718939 0.804121 0.263072
154 1 0.599842 0.988809 0.292535
646 2 0.863501 0.790387 0.29068
196 1 0.966128 0.876945 0.327133
670 2 0.70289 0.873613 0.299885
175 1 0.989637 0.935594 0.287242
176 1 0.145045 0.018961 0.357367
677 2 0.167845 0.155654 0.355283
681 2 0.052176 0.133455 0.388787
653 2 0.438934 0.148637 0.330126
183 1 0.267416 0.220278 0.328278
208 1 0.40392 0.133508 0.390381
178 1 0.312639 0.0688833 0.35685
159 1 0.610081 0.317137 0.373367
654 2 0.703831 0.0857069 0.368724
679 2 0.722596 0.201438 0.390556
179 1 0.561689 0.0497302 0.378645
680 2 0.960364 0.118264 0.334845
699 2 0.862377 0.145944 0.37125
206 1 0.876543 0.0911738 0.407078
182 1 0.973387 0.24449 0.357523
187 1 0.138621 0.308293 0.343395
212 1 0.129188 0.393431 0.387029
682 2 0.30541 0.29153 0.368471
683 2 0.493123 0.342157 0.406545
687 2 0.247569 0.481065 0.396355
688 2 0.370063 0.453059 0.365643
663 2 0.509149 0.425883 0.35494
190 1 0.663624 0.315435 0.328645
664 2 0.637186 0.491291 0.340658
184 1 0.679251 0.325502 0.413214
656 2 0.917033 0.390733 0.333945
659 2 0.787019 0.406656 0.375411
181 1 0.879104 0.285172 0.38961
192 1 0.0820127 0.682936 0.342201
686 2 0.0231309 0.54565 0.374517
691 2 0.125339 0.776616 0.3826
217 1 0.204602 0.571984 0.35671
717 2 0.27615 0.660147 0.382949
193 1 0.520486 0.671215 0.351921
692 2 0.351903 0.590168 0.342615
218 1 0.418078 0.584957 0.376116
643 2 0.498241 0.579017 0.322416
189 1 0.557792 0.515616 0.381431
693 2 0.538739 0.716359 0.389802
194 1 0.703547 0.774313 0.406427
186 1 0.875241 0.521724 0.381823
669 2 0.737095 0.736655 0.365546
191 1 0.929377 0.686902 0.36555
690 2 0.661995 0.621226 0.375475
200 1 0.818088 0.639837 0.396305
676 2 0.275356 0.923462 0.355082
696 2 0.0981394 0.875465 0.352728
201 1 0.203995 0.0990507 0.392663
222 1 0.236015 0.756596 0.351005
697 2 0.279606 0.811014 0.395787
698 2 0.431037 0.952014 0.378999
223 1 0.41698 0.783547 0.376029
673 2 0.518452 0.985594 0.337636
174 1 0.72751 0.90261 0.366996
668 2 0.584044 0.876385 0.387671
204 1 0.689904 0.013694 0.40427
199 1 0.858753 0.829356 0.378317
674 2 0.810223 0.787783 0.331458
675 2 1.00112 0.989021 0.369011
221 1 0.0141572 0.862624 0.388428
202 1 0.273061 0.101599 0.458673
207 1 0.309573 0.0990198 0.423779
232 1 0.341758 0.238864 0.444007
701 2 0.0331416 0.962692 0.47338
706 2 0.146161 0.107038 0.428693
203 1 0.298798 0.969829 0.395055
703 2 0.516784 0.992243 0.409993
708 2 0.450363 0.0762553 0.450081
678 2 0.577354 0.189901 0.400065
209 1 0.741639 0.124088 0.424251
704 2 0.572186 0.13324 0.47258
229 1 0.585549 0.0926665 0.430823
230 1 0.77094 0.172164 0.464714
700 2 0.0362364 0.0154757 0.409082
231 1 0.0294585 0.0728752 0.442901
205 1 0.825268 0.997212 0.380994
705 2 0.843791 0.0415582 0.444975
236 1 0.0921037 0.254823 0.450692
237 1 0.185132 0.250383 0.397418
711 2 0.112979 0.478385 0.422909
712 2 0.272144 0.396314 0.440682
213 1 0.402783 0.464931 0.403453
233 1 0.400772 0.196679 0.477317
238 1 0.426626 0.395455 0.440414
707 2 0.33321 0.331536 0.403687
214 1 0.506488 0.229611 0.433318
684 2 0.572248 0.464592 0.422662
709 2 0.698845 0.420662 0.445228
215 1 0.73309 0.483569 0.410139
714 2 0.61944 0.557608 0.450069
234 1 0.649433 0.262637 0.454935
210 1 0.82827 0.354539 0.427681
211 1 0.975579 0.399773 0.381826
685 2 0.96625 0.509451 0.410956
235 1 0.923876 0.196648 0.449911
240 1 0.783158 0.59086 0.458076
710 2 0.0357244 0.309232 0.413332
715 2 0.897887 0.475764 0.454331
695 2 0.145574 0.591217 0.38979
242 1 0.232972 0.552776 0.453047
741 2 0.327345 0.777344 0.432755
720 2 0.143563 0.819784 0.423146
246 1 0.122346 0.645865 0.430735
718 2 0.401575 0.684951 0.402141
716 2 0.26234 0.631692 0.420841
713 2 0.438745 0.572449 0.430966
243 1 0.356944 0.658917 0.461394
689 2 0.635189 0.615831 0.41382
694 2 0.700201 0.721843 0.437919
219 1 0.644174 0.654333 0.483984
244 1 0.531134 0.697529 0.444522
216 1 0.023849 0.69617 0.4054
241 1 0.0386745 0.556103 0.459727
220 1 0.912529 0.641064 0.439891
247 1 0.158982 0.936497 0.390978
721 2 0.22244 0.95953 0.437875
725 2 0.986994 0.885706 0.431588
746 2 0.150164 0.859757 0.464995
702 2 0.394117 0.0111459 0.479832
248 1 0.456434 0.747285 0.486224
722 2 0.381875 0.960758 0.430927
723 2 0.452275 0.832112 0.414068
748 2 0.452059 0.861346 0.458081
224 1 0.605485 0.86811 0.430867
719 2 0.752626 0.816157 0.464663
724 2 0.806589 0.899779 0.415086
249 1 0.655187 0.85874 0.49082
749 2 0.696116 0.972601 0.453763
225 1 0.872813 0.773378 0.42342
250 1 0.878898 0.89973 0.459929
227 1 0.185223 0.9755 0.50028
726 2 0.136063 0.0955604 0.476558
252 1 0.158959 0.0729509 0.530133
251 1 0.00882952 0.995982 0.512074
276 1 0.0258375 0.130634 0.55393
228 1 0.407809 0.105387 0.509253
727 2 0.256668 0.109372 0.50523
752 2 0.320218 0.0326372 0.534638
728 2 0.524118 0.279865 0.483394
254 1 0.537091 0.957712 0.479738
729 2 0.546918 0.146652 0.517426
255 1 0.76018 0.00184826 0.488253
730 2 0.843903 0.194919 0.498736
755 2 0.980114 0.163133 0.483394
754 2 0.719985 0.0981943 0.522299
257 1 0.231797 0.237071 0.482865
731 2 0.073081 0.298081 0.50172
736 2 0.136507 0.402988 0.464371
732 2 0.298474 0.384476 0.476888
261 1 0.191038 0.391663 0.505776
239 1 0.539308 0.43058 0.46188
733 2 0.379871 0.283346 0.51097
259 1 0.675631 0.230133 0.493342
734 2 0.80095 0.329326 0.472849
739 2 0.658239 0.393031 0.491957
264 1 0.765816 0.317067 0.514545
763 2 0.475031 0.475761 0.497719
764 2 0.574266 0.437616 0.53899
735 2 0.974766 0.319404 0.470166
260 1 0.918052 0.334851 0.505407
265 1 0.0118483 0.461334 0.494573
267 1 0.152504 0.721977 0.50719
266 1 0.0615184 0.590422 0.512987
262 1 0.198046 0.575249 0.492977
737 2 0.381937 0.517628 0.460498
742 2 0.326952 0.647432 0.510883
738 2 0.497038 0.589262 0.475244
272 1 0.23117 0.730139 0.474487
268 1 0.468807 0.533042 0.535621
743 2 0.50106 0.663203 0.521149
269 1 0.645054 0.530091 0.505419
744 2 0.787925 0.63399 0.510574
769 2 0.630187 0.772576 0.52215
245 1 0.783638 0.492606 0.490447
270 1 0.738876 0.481635 0.537905
740 2 0.916137 0.591424 0.487751
745 2 0.067846 0.703743 0.474475
271 1 0.0939686 0.854807 0.514826
771 2 0.202918 0.936968 0.549409
253 1 0.508232 0.883171 0.519088
273 1 0.395258 0.793275 0.5364
747 2 0.313373 0.861861 0.471868
772 2 0.353197 0.906973 0.510019
793 2 0.239303 0.8227 0.525629
274 1 0.659803 0.940146 0.525138
774 2 0.800371 0.857433 0.500309
226 1 0.901764 0.0351841 0.486713
275 1 0.865501 0.727192 0.475042
750 2 0.965215 0.830615 0.486598
296 1 0.957408 0.726846 0.514843
775 2 0.887279 0.91053 0.532921
277 1 0.0881704 0.0577221 0.588587
256 1 0.972976 0.281158 0.547719
776 2 0.0605058 0.216321 0.585455
258 1 0.310995 0.201991 0.54414
282 1 0.251202 0.248016 0.576768
283 1 0.377053 0.172596 0.58742
753 2 0.500337 0.0187038 0.538827
303 1 0.44901 0.0446457 0.581747
778 2 0.456466 0.237272 0.556793
279 1 0.775322 0.992475 0.547463
308 1 0.634898 0.0348524 0.596263
309 1 0.604245 0.108092 0.556497
285 1 0.771549 0.00547635 0.587447
780 2 0.876691 0.0918217 0.562921
799 2 0.906101 0.112442 0.522607
310 1 0.74448 0.196084 0.570473
751 2 0.140931 0.248716 0.538233
761 2 0.155028 0.495138 0.53966
756 2 0.0926682 0.346063 0.564216
263 1 0.309486 0.479948 0.517156
758 2 0.417453 0.391286 0.541542
288 1 0.372648 0.365182 0.584563
757 2 0.254411 0.368534 0.544435
782 2 0.220718 0.4034 0.59324
284 1 0.606671 0.278187 0.532929
289 1 0.544985 0.32921 0.580007
290 1 0.709751 0.34638 0.560041
783 2 0.588425 0.195771 0.591329
314 1 0.679137 0.331215 0.604641
281 1 0.887691 0.219732 0.58284
760 2 0.00753545 0.429755 0.534441
759 2 0.824285 0.232045 0.542976
765 2 0.883416 0.394069 0.554249
291 1 0.0137609 0.487432 0.571241
785 2 0.809643 0.402475 0.593378
292 1 0.188598 0.594119 0.575631
766 2 0.0589187 0.649959 0.550177
767 2 0.232558 0.676184 0.540846
298 1 0.128583 0.789043 0.5556
762 2 0.321863 0.490286 0.561386
293 1 0.344001 0.67741 0.566699
788 2 0.475222 0.502175 0.574454
319 1 0.534364 0.634688 0.567469
322 1 0.270466 0.81889 0.566526
294 1 0.708038 0.658664 0.542421
794 2 0.683671 0.677203 0.581104
770 2 0.902791 0.573821 0.533566
297 1 0.97132 0.80285 0.554581
789 2 0.657422 0.484554 0.572852
796 2 0.0444543 0.958153 0.558241
797 2 0.0355808 0.767045 0.598531
798 2 0.147975 0.876256 0.596353
773 2 0.403678 0.932953 0.558189
278 1 0.248954 0.0767552 0.571211
323 1 0.427811 0.769765 0.58699
768 2 0.535512 0.789926 0.555975
299 1 0.695891 0.840211 0.556771
779 2 0.549443 0.93753 0.567163
324 1 0.586875 0.787634 0.593212
325 1 0.77359 0.89954 0.614267
295 1 0.813174 0.740361 0.573037
300 1 0.827739 0.761991 0.533027
800 2 0.853821 0.897931 0.574382
331 1 0.119263 0.231983 0.628307
302 1 0.258048 0.983897 0.621578
802 2 0.278511 0.163619 0.643904
301 1 0.974913 0.20141 0.616129
327 1 0.0935146 0.0791048 0.629981
777 2 0.362386 0.0803168 0.618749
304 1 0.513366 0.11581 0.616353
804 2 0.629834 0.122307 0.641924
849 2 0.719706 0.052623 0.674936
809 2 0.595713 0.257228 0.627284
306 1 0.812073 0.162613 0.645209
280 1 0.757966 0.0360125 0.63254
326 1 0.936482 0.0325204 0.636279
335 1 0.671434 0.216122 0.677221
801 2 0.116159 0.245852 0.665242
287 1 0.0751564 0.593944 0.597677
781 2 0.223214 0.133597 0.607114
786 2 0.157421 0.371315 0.689477
312 1 0.182449 0.400885 0.651331
286 1 0.0608932 0.369394 0.601267
307 1 0.248824 0.302082 0.622712
808 2 0.437009 0.276552 0.610906
313 1 0.531294 0.408827 0.615493
787 2 0.364734 0.443447 0.619395
837 2 0.454548 0.454803 0.665491
784 2 0.741901 0.171024 0.611531
315 1 0.722666 0.51883 0.606937
339 1 0.595116 0.43736 0.65066
810 2 0.86769 0.330356 0.627828
311 1 0.916646 0.511153 0.604228
806 2 0.023878 0.362229 0.65177
340 1 0.732046 0.308446 0.644853
840 2 0.869449 0.451358 0.645177
791 2 0.94731 0.637383 0.577286
317 1 0.240425 0.528078 0.618927
316 1 0.0409688 0.52302 0.632635
342 1 0.109106 0.684673 0.628883
792 2 0.362556 0.576806 0.596523
318 1 0.331596 0.546729 0.654606
818 2 0.331525 0.705406 0.621471
817 2 0.197326 0.723346 0.595773
842 2 0.213522 0.735465 0.656276
338 1 0.46405 0.544609 0.627505
814 2 0.652793 0.616102 0.639443
813 2 0.586834 0.560934 0.603384
819 2 0.49105 0.685368 0.614563
320 1 0.811315 0.662031 0.607183
345 1 0.61657 0.739528 0.665717
795 2 0.897595 0.826689 0.606325
790 2 0.800674 0.557585 0.570263
815 2 0.821752 0.604868 0.64247
816 2 0.944316 0.673004 0.630064
821 2 0.00841103 0.951018 0.607622
347 1 0.156398 0.875282 0.639278
346 1 0.986883 0.83252 0.63737
822 2 0.349436 0.935697 0.593039
823 2 0.496017 0.913002 0.604608
328 1 0.219943 0.986415 0.664113
348 1 0.338112 0.868623 0.632253
329 1 0.435441 0.947458 0.65693
824 2 0.607022 0.974516 0.634511
349 1 0.642674 0.797047 0.627824
843 2 0.496657 0.798324 0.645546
820 2 0.819568 0.789033 0.649842
321 1 0.906263 0.0624731 0.596684
332 1 0.209946 0.109782 0.693736
357 1 0.0695094 0.0712417 0.673836
851 2 0.124884 0.244132 0.71257
852 2 0.083751 0.0859152 0.716425
351 1 0.959702 0.166134 0.691746
803 2 0.406987 0.140046 0.658679
827 2 0.350175 0.00289295 0.690996
334 1 0.565976 0.0852503 0.675292
358 1 0.377276 0.148912 0.708578
829 2 0.524827 0.231621 0.72218
330 1 0.682294 0.190842 0.719908
355 1 0.490538 0.0270564 0.7095
826 2 0.970272 0.205317 0.653389
305 1 0.885818 0.0319286 0.674894
850 2 0.78927 0.0253713 0.7176
356 1 0.82043 0.193454 0.685663
805 2 0.0191117 0.318377 0.694109
337 1 0.928761 0.449486 0.705006
831 2 0.107068 0.38694 0.731434
807 2 0.319455 0.427458 0.688851
333 1 0.332037 0.35416 0.654218
832 2 0.279981 0.247033 0.675636
363 1 0.249447 0.348155 0.72047
364 1 0.405018 0.288205 0.70154
833 2 0.508769 0.237114 0.661773
834 2 0.583317 0.531463 0.688011
835 2 0.652248 0.342105 0.693139
359 1 0.51491 0.394353 0.699061
336 1 0.869682 0.334693 0.672052
361 1 0.847621 0.331067 0.718459
365 1 0.756318 0.46202 0.698341
811 2 0.964945 0.56456 0.666639
812 2 0.160993 0.534322 0.66797
836 2 0.0810157 0.661394 0.663559
362 1 0.0654569 0.507462 0.702493
838 2 0.398894 0.585777 0.687531
862 2 0.241193 0.639026 0.692152
368 1 0.225646 0.513323 0.723298
839 2 0.723466 0.510081 0.662159
344 1 0.500072 0.62708 0.658593
864 2 0.574682 0.484118 0.728371
369 1 0.493463 0.620173 0.733435
370 1 0.688701 0.608312 0.711733
341 1 0.940179 0.735323 0.672192
861 2 0.0900243 0.691764 0.702416
366 1 0.811735 0.61427 0.680953
846 2 0.0362885 0.935238 0.664412
847 2 0.284072 0.786214 0.689595
372 1 0.140418 0.93267 0.698168
828 2 0.437382 0.853474 0.695522
343 1 0.359171 0.71795 0.659614
848 2 0.376205 0.724865 0.719091
872 2 0.202285 0.00333066 0.73068
844 2 0.530956 0.69424 0.696697
350 1 0.684042 0.872943 0.65995
374 1 0.558661 0.927018 0.679612
375 1 0.625467 0.957661 0.72157
841 2 0.00539574 0.819044 0.696539
825 2 0.887175 0.871043 0.676548
845 2 0.757344 0.837929 0.695191
352 1 0.965082 0.00975582 0.706783
875 2 0.877871 0.864695 0.717874
377 1 0.0943366 0.0345053 0.754766
881 2 0.136756 0.17197 0.748945
900 2 0.94687 0.116275 0.741556
353 1 0.29199 0.234505 0.740856
858 2 0.190841 0.309085 0.761157
383 1 0.221443 0.0883349 0.789131
354 1 0.419365 0.112941 0.760537
855 2 0.581782 0.121637 0.748924
830 2 0.832201 0.188005 0.720247
879 2 0.69894 0.120433 0.773628
856 2 0.0444688 0.360316 0.771138
386 1 0.959508 0.491163 0.742385
885 2 0.0296938 0.530602 0.781923
411 1 0.114889 0.418184 0.802522
857 2 0.324421 0.419546 0.774105
863 2 0.400741 0.485996 0.726679
882 2 0.349342 0.269533 0.783718
854 2 0.490076 0.252217 0.766228
859 2 0.731425 0.410615 0.738382
389 1 0.403613 0.345198 0.742705
889 2 0.635938 0.513055 0.763822
381 1 0.995067 0.263238 0.733106
360 1 0.566625 0.345911 0.744282
385 1 0.744216 0.281741 0.75609
384 1 0.894791 0.363871 0.760272
367 1 0.143428 0.816396 0.727787
886 2 0.0493958 0.64488 0.757432
866 2 0.174354 0.676036 0.784861
392 1 0.295243 0.636618 0.817363
867 2 0.204579 0.707653 0.748307
387 1 0.168548 0.472148 0.758054
393 1 0.320204 0.619479 0.748069
893 2 0.3402 0.674394 0.781746
394 1 0.655423 0.630003 0.790252
868 2 0.632688 0.668935 0.750449
892 2 0.511087 0.571302 0.777474
399 1 0.629809 0.766061 0.805918
860 2 0.913756 0.615906 0.711203
865 2 0.900043 0.666613 0.747557
391 1 0.743171 0.75914 0.772084
870 2 0.790289 0.71557 0.717168
390 1 0.76627 0.568999 0.745316
890 2 0.86733 0.536987 0.770817
871 2 0.979872 0.931081 0.746815
398 1 0.118972 0.861344 0.766585
397 1 0.254629 0.819024 0.779573
382 1 0.267844 0.970708 0.771823
373 1 0.30421 0.849943 0.739529
898 2 0.464837 0.746082 0.759534
873 2 0.371373 0.994189 0.74031
869 2 0.728517 0.870365 0.739777
874 2 0.598726 0.791164 0.722532
379 1 0.495692 0.89271 0.743614
400 1 0.599493 0.839035 0.768009
371 1 0.0065274 0.774877 0.732839
376 1 0.819384 0.00638369 0.758009
380 1 0.648777 0.986488 0.764024
396 1 0.889694 0.807106 0.758668
876 2 0.980612 0.0258343 0.778918
880 2 0.0192076 0.170739 0.770874
402 1 0.104226 0.104814 0.815613
906 2 0.0765976 0.181359 0.892912
922 2 0.982462 0.967664 0.818709
877 2 0.259043 0.171705 0.821262
378 1 0.414746 0.0371899 0.797385
853 2 0.577594 0.110323 0.796143
878 2 0.366679 0.0459823 0.843419
909 2 0.625055 0.276055 0.782791
904 2 0.726038 0.137753 0.80986
934 2 0.489593 0.329881 0.813749
405 1 0.847711 0.0395263 0.792501
435 1 0.859531 0.233652 0.78045
924 2 0.618779 0.244228 0.823192
406 1 0.227149 0.510624 0.789376
416 1 0.131971 0.431141 0.842407
407 1 0.150801 0.245159 0.799652
912 2 0.060819 0.228381 0.837318
417 1 0.950907 0.111718 0.808684
412 1 0.413581 0.540782 0.805887
388 1 0.476199 0.408558 0.782868
413 1 0.303169 0.362555 0.816888
883 2 0.437846 0.187224 0.809074
888 2 0.617829 0.488847 0.803083
414 1 0.752086 0.41352 0.790823
884 2 0.925856 0.401241 0.797845
410 1 0.768267 0.293641 0.810461
915 2 0.987768 0.416578 0.836239
891 2 0.0903829 0.575944 0.820572
418 1 0.248517 0.493705 0.826571
887 2 0.526935 0.593729 0.828719
424 1 0.200729 0.760863 0.818702
443 1 0.414648 0.701111 0.840748
395 1 0.779538 0.563688 0.805231
415 1 0.671753 0.616855 0.838946
919 2 0.482523 0.724467 0.799344
430 1 0.389778 0.834502 0.819811
910 2 0.938274 0.537752 0.812639
895 2 0.928324 0.654561 0.78866
420 1 0.776105 0.701563 0.816606
897 2 0.138942 0.958016 0.802887
896 2 0.999569 0.886945 0.789498
422 1 0.0411794 0.753332 0.804918
428 1 0.0857467 0.880086 0.834286
421 1 0.933115 0.842231 0.834088
423 1 0.432255 0.893636 0.780416
403 1 0.303574 0.931181 0.812954
448 1 0.342108 0.830852 0.892192
404 1 0.549823 0.962859 0.805327
899 2 0.664489 0.866425 0.82837
449 1 0.363326 0.834004 0.856182
450 1 0.814866 0.952747 0.83545
425 1 0.708164 0.968989 0.797805
911 2 0.937302 0.683477 0.830143
401 1 0.937136 0.0165171 0.858843
920 2 0.844606 0.878607 0.804839
901 2 0.216828 0.301074 0.894028
905 2 0.910515 0.102843 0.887368
447 1 0.222416 0.0554275 0.886142
931 2 0.854767 0.254626 0.872397
431 1 0.188582 0.000989373 0.836616
902 2 0.372344 0.969719 0.873032
409 1 0.401489 0.249896 0.84
427 1 0.366696 0.135345 0.870736
933 2 0.500634 0.344792 0.855965
453 1 0.358025 0.0331585 0.907264
903 2 0.529617 0.0255774 0.884579
949 2 0.632405 0.0579274 0.832271
929 2 0.703659 0.0173549 0.929729
434 1 0.520825 0.127897 0.854764
930 2 0.92932 0.289003 0.825755
429 1 0.782895 0.138333 0.844978
408 1 0.20769 0.472867 0.877743
940 2 0.151769 0.597327 0.858899
908 2 0.232558 0.198597 0.859335
439 1 0.408851 0.44764 0.839027
937 2 0.257618 0.343109 0.85734
433 1 0.386786 0.274852 0.884554
440 1 0.800582 0.44097 0.830065
939 2 0.624806 0.462271 0.849306
964 2 0.652241 0.229198 0.865406
436 1 0.0815957 0.298951 0.872656
944 2 0.891285 0.41838 0.863189
935 2 0.75554 0.307065 0.850177
472 1 0.0712531 0.68976 0.879967
917 2 0.244884 0.727822 0.852451
470 1 0.07291 0.527826 0.887492
497 1 0.237031 0.729438 0.903102
913 2 0.354221 0.427202 0.876118
918 2 0.462125 0.77265 0.910229
419 1 0.368802 0.6559 0.882874
942 2 0.31517 0.565032 0.857278
894 2 0.489249 0.53978 0.869308
925 2 0.731554 0.76745 0.848009
914 2 0.700459 0.565771 0.875748
444 1 0.554993 0.741646 0.842298
943 2 0.701479 0.740149 0.88285
441 1 0.987307 0.555449 0.854045
445 1 0.82284 0.575103 0.852598
945 2 0.929576 0.533728 0.892167
946 2 0.871686 0.72056 0.85931
473 1 0.0759421 0.724081 0.844568
921 2 0.0275987 0.895605 0.869694
426 1 0.106471 0.068641 0.860482
499 1 0.198849 0.871335 0.860395
947 2 0.444648 0.897488 0.931614
923 2 0.516168 0.969993 0.841705
948 2 0.494567 0.860088 0.87415
446 1 0.638074 0.942977 0.868623
974 2 0.773155 0.0221215 0.893811
941 2 0.841588 0.866127 0.868996
475 1 0.773295 0.845767 0.903876
926 2 0.0339489 0.0194386 0.891843
907 2 0.21193 0.146032 0.917847
437 1 0.118744 0.278931 0.937462
457 1 0.11321 0.13215 0.94482
928 2 0.501802 0.174533 0.89546
478 1 0.382602 0.149477 0.928695
459 1 0.640906 0.173356 0.906943
451 1 0.00887629 0.112123 0.920925
460 1 0.769329 0.172601 0.897344
455 1 0.797122 0.178428 0.943023
936 2 0.103023 0.536297 0.941841
461 1 0.129543 0.412903 0.912552