ITEM: TIMESTEP
16740
ITEM: NUMBER OF ATOMS
1000
ITEM: BOX BOUNDS pp pp pp
0.0000000000000000e+00 6.2996052494743662e+00
0.0000000000000000e+00 6.2996052494743662e+00
0.0000000000000000e+00 2.5198420997897465e+01
ITEM: ATOMS id type xs ys zs
581 2 0.989369 0.084597 0.0621925
471 1 0.986419 0.0548157 0.00309989
51 1 0.0848624 0.174406 0.0411304
951 2 0.136733 0.0117701 0.0351468
903 2 0.189483 0.149619 0.952828
526 2 0.406358 0.105502 0.0129291
512 2 0.229732 0.144886 0.0244349
548 2 0.316444 0.0334984 0.0378861
34 1 0.450054 0.2171 0.0484675
96 1 0.492365 0.991142 0.000333268
518 2 0.694041 0.033323 0.0328551
29 1 0.558364 0.220642 0.0168201
507 2 0.606688 0.140088 0.0475814
918 2 0.869936 0.0390496 0.0368502
71 1 0.940174 0.248083 0.034347
973 2 0.788052 0.186529 0.028721
510 2 0.176218 0.376335 0.0489184
927 2 0.0802273 0.329273 0.0205821
482 1 0.259084 0.521322 0.0386496
52 1 0.359932 0.346288 0.062484
952 2 0.259077 0.287423 0.0279793
511 2 0.355492 0.405319 0.0256584
503 2 0.603315 0.402085 0.988924
986 2 0.369361 0.26127 0.00264063
27 1 0.667757 0.305521 0.0301781
17 1 0.552542 0.335392 0.0704002
73 1 0.756591 0.434804 0.0130697
13 1 0.920719 0.376712 0.00356353
529 2 0.814161 0.491875 0.0489409
977 2 0.812104 0.311551 0.0496237
485 1 0.910488 0.408727 0.0770706
454 1 0.102813 0.530922 0.0251958
85 1 0.107173 0.566783 0.0634395
523 2 0.199693 0.58904 0.999236
997 2 0.0231185 0.609781 0.995205
9 1 0.259108 0.662981 0.0659451
63 1 0.446141 0.526089 0.0368127
48 1 0.341874 0.625784 0.0241477
947 2 0.412654 0.701788 0.0569373
978 2 0.450593 0.628268 0.994533
552 2 0.529579 0.486583 0.0709874
79 1 0.564235 0.549821 0.0141565
15 1 0.578529 0.648833 0.0544072
487 1 0.99091 0.449341 0.0472581
987 2 0.982675 0.613917 0.0403129
520 2 0.723774 0.619593 0.0411123
49 1 0.84578 0.719596 0.051093
36 1 0.781876 0.895417 0.0286204
498 1 0.99358 0.946316 0.0301873
494 1 0.160898 0.994417 0.985533
70 1 0.099407 0.842265 0.04012
23 1 0.272086 0.819343 0.0423067
12 1 0.40816 0.90132 0.0255829
455 1 0.352256 0.784609 0.99502
979 2 0.245131 0.938889 0.0157971
33 1 0.490546 0.734134 0.0213049
4 1 0.585449 0.898214 0.0257732
524 2 0.691143 0.824113 0.0556977
37 1 0.0387125 0.774216 0.0114903
525 2 0.753556 0.970816 0.0640947
495 1 0.761076 0.988206 0.998569
488 1 0.0101954 0.907033 0.995789
560 2 0.129239 0.110397 0.0811365
559 2 0.987905 0.053223 0.12973
92 1 0.286971 0.195228 0.0607358
546 2 0.183583 0.27788 0.0815267
589 2 0.0914081 0.205579 0.107496
89 1 0.402138 0.228464 0.0929941
516 2 0.466824 0.0436206 0.0502909
599 2 0.229495 0.105889 0.115127
543 2 0.389213 0.108931 0.119805
45 1 0.598541 0.994702 0.0761273
565 2 0.71175 0.395819 0.0726785
554 2 0.631439 0.214282 0.0813895
558 2 0.528769 0.224745 0.113138
528 2 0.865928 0.240291 0.0834039
982 2 0.764363 0.158256 0.0667822
967 2 0.866299 0.0123496 0.0855907
57 1 0.167117 0.382178 0.116281
65 1 0.0632753 0.443678 0.0797137
527 2 0.502376 0.362116 0.0249426
561 2 0.61154 0.390972 0.107344
78 1 0.315229 0.366113 0.105757
477 1 0.641948 0.453658 0.0392693
42 1 0.80238 0.412461 0.102486
575 2 0.975763 0.331147 0.116769
521 2 0.757572 0.562907 0.0864691
41 1 0.028356 0.277052 0.0808351
77 1 0.944551 0.466199 0.111274
486 1 0.889011 0.183111 0.122249
7 1 0.178679 0.649057 0.0959957
985 2 0.101014 0.548983 0.117128
594 2 0.0105982 0.663125 0.0953016
28 1 0.197057 0.49691 0.0875264
139 1 0.11975 0.685636 0.0367324
514 2 0.359707 0.549406 0.0708248
11 1 0.237048 0.555843 0.136182
56 1 0.613905 0.550314 0.104122
533 2 0.495583 0.626253 0.0894337
86 1 0.697023 0.70498 0.100102
64 1 0.609837 0.660737 0.135029
35 1 0.90053 0.582092 0.0677683
40 1 0.847374 0.709907 0.0885081
590 2 0.72008 0.494194 0.130564
963 2 0.230995 0.837173 0.124408
555 2 0.221126 0.945621 0.0578004
38 1 0.171394 0.948012 0.0996554
542 2 0.177362 0.790306 0.0731159
597 2 0.0419571 0.940436 0.082361
547 2 0.391595 0.853632 0.118268
537 2 0.316898 0.760852 0.0891174
513 2 0.318064 0.0214852 0.0776499
95 1 0.507052 0.877133 0.0577563
545 2 0.551445 0.770648 0.079106
468 1 0.481075 0.0466203 0.0898538
998 2 0.499966 0.748615 0.114558
21 1 0.650748 0.93679 0.106543
532 2 0.0187507 0.743333 0.06146
98 1 0.958599 0.813818 0.0953015
598 2 0.673027 0.816702 0.129247
534 2 0.760899 0.845805 0.0955661
39 1 0.931858 0.870336 0.0590868
577 2 0.132795 0.0613099 0.142615
539 2 0.0383704 0.13793 0.165648
54 1 0.127334 0.00918062 0.176605
638 2 0.0935625 0.261862 0.150853
105 1 0.412239 0.263091 0.148487
68 1 0.471346 0.0774307 0.155913
112 1 0.266457 0.138942 0.153115
72 1 0.296627 0.961736 0.138906
59 1 0.592463 0.0690826 0.112895
541 2 0.774391 0.0967836 0.106669
99 1 0.579365 0.181528 0.148562
566 2 0.738999 0.269006 0.105434
550 2 0.784097 0.971492 0.12768
93 1 0.941721 0.263295 0.153951
118 1 0.872382 0.0153215 0.160486
544 2 0.0643919 0.434774 0.145399
957 2 0.0310034 0.27795 0.186816
82 1 0.223532 0.40223 0.153137
636 2 0.0451529 0.677493 0.140293
76 1 0.24926 0.248781 0.124762
671 2 0.497525 0.23745 0.18595
62 1 0.475987 0.40044 0.124758
557 2 0.52104 0.41369 0.18337
576 2 0.656524 0.335531 0.141594
100 1 0.708607 0.487015 0.165101
90 1 0.700341 0.248733 0.170633
60 1 0.806452 0.33663 0.139194
80 1 0.880178 0.484425 0.145538
125 1 0.157039 0.556486 0.167366
107 1 0.202699 0.692916 0.133053
553 2 0.0196354 0.773818 0.176762
97 1 0.303666 0.781991 0.160219
538 2 0.371029 0.545859 0.110565
551 2 0.358871 0.688017 0.125641
595 2 0.361176 0.458399 0.149671
519 2 0.477548 0.582298 0.133533
50 1 0.569147 0.461708 0.147548
116 1 0.485069 0.73496 0.154981
981 2 0.875279 0.60025 0.11546
83 1 0.891261 0.690016 0.16236
517 2 0.860274 0.85379 0.165989
642 2 0.0324675 0.60901 0.187521
88 1 0.9938 0.942998 0.160528
578 2 0.00560567 0.970627 0.196975
53 1 0.0685201 0.931567 0.13002
141 1 0.170792 0.871518 0.160901
509 2 0.39022 0.889222 0.0789595
570 2 0.406282 0.908699 0.16133
587 2 0.479152 0.981531 0.126353
502 2 0.559073 0.872982 0.157435
14 1 0.708097 0.786534 0.165608
108 1 0.723015 0.941051 0.174069
104 1 0.976837 0.80229 0.13336
44 1 0.924242 0.924003 0.118191
10 1 0.824308 0.793156 0.127936
583 2 0.0394695 0.107258 0.202775
127 1 0.221253 0.0184688 0.216178
580 2 0.000953364 0.204148 0.231218
569 2 0.182253 0.186554 0.181839
667 2 0.155911 0.156608 0.228704
536 2 0.532093 0.0315452 0.226639
74 1 0.369051 0.15165 0.179104
971 2 0.644496 0.0193783 0.147179
530 2 0.760823 0.0972828 0.179693
117 1 0.728829 0.165927 0.138417
626 2 0.630245 0.147381 0.196089
109 1 0.911123 0.187638 0.187674
102 1 0.703068 0.0413069 0.217867
601 2 0.941619 0.119569 0.260485
628 2 0.965106 0.99375 0.234823
535 2 0.147196 0.397387 0.187148
585 2 0.237262 0.445681 0.226342
91 1 0.308746 0.474789 0.187219
611 2 0.306495 0.318571 0.213208
101 1 0.303837 0.317008 0.175673
609 2 0.453465 0.464973 0.213876
586 2 0.42534 0.25176 0.233258
55 1 0.609398 0.441167 0.229213
84 1 0.615393 0.532933 0.192522
607 2 0.55888 0.304254 0.220927
670 2 0.67346 0.375077 0.196751
1 1 0.975902 0.417959 0.178736
157 1 0.806804 0.366452 0.177423
564 2 0.873289 0.546071 0.179375
582 2 0.0293071 0.415108 0.215103
87 1 0.12463 0.565928 0.216097
169 1 0.0774185 0.719837 0.218768
166 1 0.12224 0.446283 0.251935
144 1 0.163911 0.72527 0.173919
606 2 0.341521 0.585329 0.216124
593 2 0.289961 0.633397 0.171691
665 2 0.495473 0.638961 0.206597
115 1 0.392824 0.75003 0.227188
604 2 0.75826 0.634971 0.160891
556 2 0.465296 0.550627 0.176737
150 1 0.641703 0.736268 0.207883
647 2 0.593867 0.663446 0.173631
622 2 0.951732 0.546022 0.215871
94 1 0.940405 0.776672 0.243874
111 1 0.795093 0.666715 0.238712
122 1 0.155502 0.881083 0.202587
591 2 0.232899 0.706242 0.215967
563 2 0.149308 0.787356 0.248701
562 2 0.44566 0.999744 0.192857
635 2 0.417788 0.763659 0.271702
120 1 0.288351 0.991051 0.177063
613 2 0.268688 0.888071 0.234404
66 1 0.315354 0.825435 0.197714
149 1 0.485575 0.778965 0.192586
540 2 0.609557 0.00844508 0.186013
572 2 0.572585 0.172733 0.235117
113 1 0.787907 0.76567 0.199077
632 2 0.896716 0.68097 0.210407
615 2 0.850689 0.970881 0.197124
596 2 0.971475 0.846358 0.214882
648 2 0.814947 0.868326 0.225345
128 1 0.233609 0.0303823 0.258402
652 2 0.131748 0.139568 0.276488
603 2 0.38064 0.0812694 0.220282
124 1 0.31912 0.0991323 0.288555
138 1 0.395182 0.235323 0.271215
140 1 0.246155 0.168442 0.25751
579 2 0.426775 0.0627954 0.258216
110 1 0.579291 0.060088 0.272366
151 1 0.468781 0.16091 0.298475
129 1 0.716471 0.168479 0.256527
623 2 0.554021 0.246527 0.270107
679 2 0.649593 0.159912 0.297197
26 1 0.876786 0.112504 0.217705
176 1 0.0533074 0.000672614 0.268931
630 2 0.802717 0.0272098 0.246486
610 2 0.143243 0.292876 0.21606
618 2 0.123418 0.30657 0.275519
130 1 0.977581 0.340193 0.246391
608 2 0.267909 0.352897 0.253184
612 2 0.372364 0.437507 0.291364
592 2 0.710271 0.306553 0.238024
653 2 0.46272 0.387322 0.254826
161 1 0.752474 0.225555 0.207698
621 2 0.772519 0.44337 0.22179
637 2 0.659541 0.52386 0.258618
135 1 0.840666 0.233081 0.241532
567 2 0.895158 0.348256 0.211474
641 2 0.957744 0.489064 0.253767
634 2 0.212121 0.445032 0.286076
247 1 0.0885638 0.689251 0.278167
121 1 0.23826 0.580924 0.245551
568 2 0.998523 0.6384 0.247169
651 2 0.368956 0.514719 0.250785
617 2 0.498624 0.508513 0.274466
697 2 0.214665 0.59662 0.288723
531 2 0.611462 0.621768 0.231816
675 2 0.681387 0.671563 0.280864
164 1 0.483996 0.62011 0.252087
619 2 0.57264 0.795303 0.244399
148 1 0.381294 0.609441 0.283068
152 1 0.852325 0.562559 0.272634
81 1 0.791849 0.788295 0.268944
691 2 0.827532 0.391776 0.254133
142 1 0.220714 0.856034 0.278035
616 2 0.11199 0.951707 0.236135
614 2 0.0514369 0.848736 0.283965
177 1 0.162573 0.954146 0.302108
69 1 0.413477 0.928364 0.230935
134 1 0.368814 0.90898 0.276789
672 2 0.269191 0.70908 0.263936
103 1 0.406602 0.827602 0.315354
131 1 0.58069 0.888361 0.211665
147 1 0.512301 0.91392 0.26385
195 1 0.476622 0.642818 0.321552
605 2 0.64973 0.96021 0.245423
625 2 0.885883 0.905991 0.269665
655 2 0.658613 0.831729 0.279663
119 1 0.112765 0.347434 0.318746
680 2 0.0310052 0.0404571 0.307232
662 2 0.898875 0.965747 0.329497
690 2 0.0465968 0.15468 0.346902
185 1 0.19652 0.0721379 0.327564
201 1 0.316058 0.202241 0.313884
183 1 0.452953 0.00338016 0.296314
190 1 0.594575 0.216541 0.357371
686 2 0.542036 0.236042 0.323141
238 1 0.54129 0.0604742 0.323309
172 1 0.899199 0.12498 0.296196
649 2 0.00418379 0.244403 0.294633
189 1 0.673584 0.144217 0.332535
123 1 0.789983 0.225642 0.287817
180 1 0.159519 0.461019 0.342004
145 1 0.00793628 0.405487 0.281673
179 1 0.119726 0.201912 0.315561
639 2 0.98943 0.458419 0.346577
126 1 0.404518 0.301431 0.321884
640 2 0.257873 0.275253 0.287979
656 2 0.35816 0.395314 0.35207
137 1 0.278018 0.403549 0.320737
657 2 0.536404 0.420468 0.32671
627 2 0.673092 0.341513 0.286298
67 1 0.649834 0.36441 0.346244
699 2 0.708641 0.278125 0.319609
643 2 0.490482 0.341302 0.35865
170 1 0.729498 0.542659 0.323777
160 1 0.870017 0.362307 0.291715
154 1 0.754192 0.472683 0.28882
158 1 0.861057 0.555561 0.347901
133 1 0.887947 0.194825 0.329667
664 2 0.97646 0.318215 0.335463
620 2 0.0716131 0.500102 0.310927
629 2 0.892089 0.493351 0.306968
178 1 0.977944 0.629409 0.308093
114 1 0.507713 0.346156 0.294684
168 1 0.386535 0.509591 0.320836
661 2 0.309237 0.539111 0.356971
720 2 0.182288 0.625081 0.342588
650 2 0.61126 0.527552 0.301228
146 1 0.538222 0.776351 0.330441
155 1 0.530975 0.708424 0.290446
198 1 0.703247 0.720909 0.331021
231 1 0.918809 0.71193 0.276573
700 2 0.00709094 0.627206 0.34819
175 1 0.810384 0.652571 0.306072
682 2 0.977868 0.775484 0.314673
159 1 0.0646902 0.896478 0.330287
153 1 0.137454 0.775387 0.317822
221 1 0.229148 0.882638 0.340118
624 2 0.301037 0.737791 0.302335
658 2 0.306031 0.93411 0.314663
163 1 0.360831 0.853544 0.362134
696 2 0.466463 0.94646 0.337198
719 2 0.776727 0.98035 0.286268
724 2 0.607378 0.956496 0.299793
588 2 0.833285 0.810686 0.315372
673 2 0.686135 0.862167 0.317566
202 1 0.743418 0.0185849 0.326386
181 1 0.123808 0.145998 0.389359
660 2 0.139766 0.00324576 0.360521
236 1 0.248951 0.1277 0.36943
687 2 0.264276 0.244673 0.349384
602 2 0.401359 0.138753 0.344665
136 1 0.470124 0.171108 0.381402
187 1 0.69435 0.178798 0.393992
698 2 0.677892 0.0739279 0.366412
633 2 0.68816 0.92777 0.390996
716 2 0.77764 0.255524 0.354307
749 2 0.840534 0.106003 0.355514
165 1 0.938665 0.209465 0.367655
715 2 0.982921 0.0329585 0.358205
677 2 0.243399 0.341244 0.385203
584 2 0.112674 0.408827 0.384097
106 1 0.0938659 0.296254 0.359862
156 1 0.997849 0.498633 0.391837
211 1 0.0292519 0.28303 0.400635
678 2 0.394825 0.319424 0.39123
188 1 0.415257 0.472875 0.386631
143 1 0.462881 0.531868 0.357028
669 2 0.546699 0.391941 0.395353
692 2 0.759743 0.343653 0.383676
237 1 0.636916 0.498681 0.367896
194 1 0.825664 0.390584 0.331032
710 2 0.915206 0.38956 0.37715
709 2 0.845331 0.201869 0.398762
688 2 0.267642 0.478106 0.395608
196 1 0.122525 0.552403 0.374828
199 1 0.240434 0.757694 0.421671
200 1 0.0713134 0.665003 0.40311
207 1 0.366419 0.688185 0.350181
220 1 0.360927 0.611888 0.386364
645 2 0.584294 0.623743 0.345805
171 1 0.524378 0.566922 0.392243
631 2 0.657106 0.766493 0.369643
725 2 0.501057 0.701035 0.374416
209 1 0.817081 0.732688 0.384166
779 2 0.611556 0.678815 0.41085
644 2 0.788838 0.499298 0.377251
191 1 0.8986 0.602377 0.383161
674 2 0.695154 0.634405 0.369755
666 2 0.704304 0.543163 0.408335
225 1 0.0962506 0.776359 0.360565
212 1 0.221226 0.90133 0.379525
205 1 0.123954 0.865663 0.402494
712 2 0.228148 0.687912 0.381804
197 1 0.319952 0.0170467 0.350577
706 2 0.542388 0.039874 0.365282
646 2 0.445323 0.980447 0.393267
741 2 0.358087 0.760774 0.399363
703 2 0.639272 0.929241 0.350996
717 2 0.51445 0.853725 0.369937
173 1 0.533189 0.803256 0.404684
676 2 0.836728 0.701002 0.349801
705 2 0.942443 0.818204 0.350767
654 2 0.989013 0.78079 0.392847
689 2 0.819516 0.0218752 0.395564
224 1 0.82885 0.912093 0.36897
213 1 0.356306 0.970562 0.452765
184 1 0.16977 0.208297 0.427821
791 2 0.174361 0.0636658 0.445226
182 1 0.456307 0.112359 0.417842
321 1 0.301678 0.190114 0.399531
162 1 0.571549 0.205565 0.414473
792 2 0.311107 0.142819 0.441541
193 1 0.740473 0.182003 0.430888
233 1 0.629197 0.215051 0.457911
718 2 0.875368 0.197815 0.461732
702 2 0.607812 0.0463976 0.403334
659 2 0.862068 0.0923964 0.435561
240 1 0.9646 0.11076 0.396741
772 2 0.0200015 0.0713569 0.435297
242 1 0.180112 0.361096 0.441793
265 1 0.340144 0.293748 0.459392
767 2 0.0406907 0.2823 0.439567
167 1 0.419207 0.477297 0.428522
736 2 0.305735 0.354939 0.421492
713 2 0.454282 0.248608 0.4358
695 2 0.347361 0.458319 0.477452
218 1 0.618481 0.36885 0.476192
132 1 0.528749 0.569643 0.444689
234 1 0.747201 0.30886 0.453831
216 1 0.684965 0.368176 0.419661
714 2 0.536638 0.38892 0.440145
685 2 0.689528 0.48012 0.456553
239 1 0.891872 0.287805 0.432402
217 1 0.834273 0.447551 0.419186
261 1 0.0224804 0.423978 0.425854
275 1 0.909656 0.48907 0.454112
203 1 0.140706 0.545618 0.420445
186 1 0.0637879 0.483561 0.455821
222 1 0.152328 0.632072 0.455421
223 1 0.467998 0.668111 0.41911
296 1 0.316742 0.596368 0.42685
745 2 0.218407 0.496546 0.455162
707 2 0.379662 0.616948 0.46252
255 1 0.677125 0.653079 0.451436
206 1 0.705064 0.77554 0.42094
737 2 0.96121 0.583414 0.4255
723 2 0.78684 0.584673 0.436695
693 2 0.939605 0.674336 0.457758
681 2 0.136483 0.0208683 0.415067
257 1 0.296092 0.0153204 0.40344
284 1 0.105169 0.880787 0.448529
746 2 0.213267 0.762107 0.461602
174 1 0.374201 0.783197 0.445942
708 2 0.240378 0.896409 0.435283
733 2 0.421917 0.878526 0.42289
229 1 0.759562 0.927084 0.429984
232 1 0.550279 0.976818 0.43516
727 2 0.557714 0.767703 0.446477
683 2 0.674509 0.0513054 0.439748
246 1 0.872793 0.712132 0.420972
251 1 0.975429 0.94369 0.390207
684 2 0.93478 0.868666 0.420073
755 2 0.0486037 0.737483 0.439533
774 2 0.810594 0.798765 0.450545
763 2 0.143981 0.209258 0.466234
290 1 0.143082 0.0760807 0.50754
272 1 0.277008 0.117379 0.484989
711 2 0.0696297 0.0717807 0.473757
781 2 0.114253 0.253643 0.512623
208 1 0.475492 0.943123 0.475867
235 1 0.535576 0.0258274 0.511544
738 2 0.450295 0.0992771 0.460935
287 1 0.369206 0.966092 0.506585
742 2 0.431879 0.123514 0.506637
264 1 0.617187 0.0567882 0.473714
289 1 0.716051 0.0378381 0.518184
219 1 0.644546 0.193449 0.509691
734 2 0.756453 0.206064 0.484098
804 2 0.866032 0.0371938 0.502146
215 1 0.00636338 0.188081 0.483321
729 2 0.946075 0.157124 0.519283
759 2 0.843845 0.308349 0.51948
732 2 0.196453 0.367859 0.486741
244 1 0.984149 0.353583 0.515669
192 1 0.997885 0.506139 0.560424
315 1 0.104978 0.431328 0.538361
259 1 0.297683 0.26933 0.497664
269 1 0.468917 0.253015 0.477455
285 1 0.442963 0.363036 0.506341
204 1 0.52417 0.498112 0.477011
721 2 0.603745 0.368909 0.515557
744 2 0.801544 0.471414 0.540137
739 2 0.867714 0.362265 0.47242
740 2 0.0350014 0.354247 0.473629
260 1 0.726751 0.399199 0.500935
278 1 0.0954691 0.592677 0.536396
762 2 0.160305 0.638806 0.500103
785 2 0.110094 0.496259 0.498053
701 2 0.989356 0.561224 0.483611
766 2 0.349413 0.59303 0.502187
249 1 0.466664 0.508968 0.520186
752 2 0.260155 0.733613 0.518598
258 1 0.292438 0.434492 0.514115
227 1 0.515348 0.650849 0.491398
300 1 0.682784 0.585985 0.492772
314 1 0.613418 0.754431 0.491625
722 2 0.804072 0.627362 0.477154
754 2 0.723752 0.690555 0.516814
230 1 0.844911 0.506933 0.500554
663 2 0.92453 0.717225 0.498456
747 2 0.161406 0.921882 0.481228
757 2 0.0236592 0.0371186 0.529436
735 2 0.332136 0.855245 0.482197
726 2 0.0663391 0.733011 0.482925
793 2 0.079372 0.752806 0.520722
770 2 0.0102783 0.95281 0.490584
214 1 0.463892 0.808163 0.496445
210 1 0.363238 0.856327 0.532564
731 2 0.464618 0.691093 0.532163
309 1 0.661583 0.909805 0.504521
753 2 0.653384 0.873391 0.460855
282 1 0.765884 0.962001 0.466568
279 1 0.588253 0.817252 0.536184
704 2 0.906752 0.0242662 0.467197
250 1 0.944823 0.850547 0.464598
668 2 0.783193 0.835634 0.496691
799 2 0.138562 0.995289 0.560466
277 1 0.913518 0.0879451 0.559941
302 1 0.129953 0.210673 0.556589
310 1 0.313704 0.0220554 0.539087
263 1 0.449397 0.115961 0.554506
798 2 0.501887 0.961024 0.54435
728 2 0.267299 0.171735 0.526653
764 2 0.302776 0.190825 0.566671
778 2 0.597952 0.0845732 0.545271
348 1 0.532952 0.0116178 0.583302
809 2 0.606939 0.155659 0.575437
824 2 0.763377 0.0410173 0.556745
294 1 0.963612 0.288976 0.581529
308 1 0.805877 0.149176 0.525918
320 1 0.78334 0.202055 0.564298
286 1 0.872882 0.0897074 0.600737
295 1 0.971953 0.247105 0.546527
298 1 0.0942797 0.353648 0.569139
357 1 0.225245 0.311149 0.536328
366 1 0.402629 0.257128 0.532749
228 1 0.378504 0.423815 0.549192
270 1 0.558691 0.29387 0.544459
274 1 0.637342 0.310245 0.579645
761 2 0.721932 0.322755 0.545642
254 1 0.517489 0.425079 0.578881
694 2 0.6206 0.440275 0.548381
765 2 0.892143 0.385576 0.560398
811 2 0.23248 0.436382 0.568786
730 2 0.975035 0.700128 0.562227
283 1 0.0787117 0.56751 0.586098
748 2 0.251964 0.601729 0.544648
266 1 0.423259 0.886749 0.57493
267 1 0.297137 0.645524 0.590179
775 2 0.192402 0.719053 0.564939
322 1 0.456023 0.560892 0.559121
288 1 0.349768 0.741379 0.56305
273 1 0.610668 0.725292 0.577213
823 2 0.609317 0.590522 0.527181
245 1 0.728221 0.673635 0.557468
350 1 0.464331 0.689003 0.589854
750 2 0.632104 0.565668 0.577766
262 1 0.932429 0.579248 0.531111
790 2 0.8199 0.586484 0.575212
795 2 0.759139 0.452089 0.584594
306 1 0.829543 0.761183 0.578196
243 1 0.964023 0.9501 0.575575
256 1 0.0159429 0.852018 0.550307
751 2 0.226868 0.88273 0.553473
780 2 0.112496 0.914482 0.521071
832 2 0.282025 0.0126376 0.581552
777 2 0.247443 0.808053 0.596251
372 1 0.609381 0.88967 0.569658
783 2 0.748545 0.891238 0.544035
789 2 0.881745 0.962194 0.535212
865 2 0.877922 0.786858 0.534548
291 1 0.809161 0.952073 0.582364
281 1 0.0506207 0.0807543 0.578679
802 2 0.161968 0.235926 0.647018
871 2 0.0167848 0.0984039 0.630646
788 2 0.126039 0.0240991 0.616154
800 2 0.0893548 0.89825 0.634146
319 1 0.391796 0.0955482 0.596656
803 2 0.259934 0.0946244 0.6213
376 1 0.402366 0.261094 0.638812
326 1 0.663607 0.00380524 0.62265
758 2 0.568915 0.140358 0.611998
304 1 0.762117 0.175544 0.626003
268 1 0.714911 0.0816737 0.594224
817 2 0.866609 0.0568355 0.642683
349 1 0.120081 0.192035 0.604904
782 2 0.222321 0.305533 0.588418
891 2 0.221274 0.35552 0.630916
341 1 0.349275 0.380772 0.617112
368 1 0.194675 0.471229 0.607626
299 1 0.383952 0.320142 0.578627
292 1 0.32128 0.23699 0.606396
794 2 0.482038 0.246942 0.595911
311 1 0.643791 0.281632 0.628459
769 2 0.637916 0.41411 0.608761
328 1 0.494056 0.373032 0.615309
845 2 0.779325 0.32064 0.654527
776 2 0.896053 0.468648 0.602231
331 1 0.928783 0.219865 0.615821
313 1 0.791522 0.281377 0.599319
271 1 0.900063 0.369796 0.633645
843 2 0.957183 0.62288 0.600244
825 2 0.0537131 0.345578 0.609249
821 2 0.128274 0.497272 0.647558
850 2 0.130479 0.616515 0.62343
796 2 0.116168 0.723034 0.59911
860 2 0.267206 0.566477 0.639957
743 2 0.36267 0.754572 0.613976
241 1 0.372018 0.484847 0.582575
293 1 0.538579 0.556239 0.612052
226 1 0.620412 0.698496 0.618323
813 2 0.771582 0.439508 0.626108
826 2 0.757013 0.630998 0.605097
840 2 0.718829 0.647015 0.642369
797 2 0.860179 0.567352 0.629611
829 2 0.024772 0.489105 0.622781
280 1 0.117496 0.880361 0.598478
822 2 0.966138 0.803902 0.593523
760 2 0.173374 0.768551 0.632815
332 1 0.956462 0.839054 0.63483
343 1 0.37304 0.912529 0.620595
818 2 0.237589 0.910609 0.633891
374 1 0.511511 0.000379377 0.625866
819 2 0.463794 0.825432 0.648845
325 1 0.510088 0.834659 0.604402
297 1 0.694835 0.839236 0.598558
324 1 0.600878 0.749938 0.659236
849 2 0.696316 0.872178 0.647279
784 2 0.974272 0.959496 0.612167
301 1 0.829711 0.928074 0.620477
808 2 0.825485 0.732811 0.62522
305 1 0.862636 0.92715 0.656695
864 2 0.954063 0.680225 0.637169
416 1 0.246136 0.121385 0.702956
346 1 0.258359 0.988657 0.666029
863 2 0.138734 0.0688938 0.655123
361 1 0.902387 0.0591459 0.718631
787 2 0.291673 0.1389 0.663064
874 2 0.423462 0.00456183 0.656871
316 1 0.349631 0.989815 0.693621
812 2 0.521613 0.230864 0.681074
333 1 0.578305 0.0608132 0.674401
342 1 0.66507 0.999645 0.707308
353 1 0.713374 0.0619094 0.655252
276 1 0.48364 0.135131 0.644431
335 1 0.661617 0.206726 0.663973
807 2 0.938417 0.0722638 0.681954
827 2 0.858198 0.2064 0.673371
365 1 0.768858 0.0988418 0.690162
370 1 0.895868 0.210492 0.710383
771 2 0.223455 0.325368 0.677517
861 2 0.0969611 0.202001 0.688414
386 1 0.09681 0.413728 0.686713
862 2 0.48273 0.37375 0.663232
834 2 0.489031 0.34463 0.709707
801 2 0.357064 0.288077 0.678503
364 1 0.398817 0.576672 0.668516
248 1 0.626482 0.344097 0.674804
859 2 0.637257 0.163533 0.708498
340 1 0.629508 0.453872 0.64869
303 1 0.956395 0.341787 0.670547
345 1 0.993784 0.204493 0.656698
387 1 0.049667 0.305456 0.715509
816 2 0.748888 0.274298 0.691297
838 2 0.071313 0.359375 0.647677
814 2 0.306417 0.430877 0.658109
842 2 0.31279 0.7004 0.658235
836 2 0.110623 0.667382 0.660125
253 1 0.427124 0.494489 0.635298
872 2 0.685971 0.573426 0.694632
815 2 0.457263 0.648787 0.635976
831 2 0.467529 0.70345 0.677381
768 2 0.519656 0.507983 0.681238
773 2 0.787782 0.460297 0.672977
847 2 0.582966 0.595282 0.654747
873 2 0.825933 0.622051 0.681842
355 1 0.0769799 0.558639 0.681343
334 1 0.937824 0.485675 0.659151
379 1 0.957256 0.663986 0.673532
867 2 0.166603 0.854147 0.674991
252 1 0.993037 0.809726 0.670162
810 2 0.039021 0.973182 0.666785
347 1 0.27647 0.778452 0.695835
869 2 0.221451 0.904249 0.705611
756 2 0.357205 0.856378 0.666016
317 1 0.450175 0.831885 0.699623
854 2 0.742841 0.918692 0.682901
327 1 0.577883 0.899419 0.677324
358 1 0.78565 0.773847 0.671981
846 2 0.891989 0.943832 0.693349
389 1 0.764624 0.708916 0.70855
359 1 0.0360035 0.161599 0.732402
930 2 0.1287 0.017899 0.703458
921 2 0.0902009 0.0829812 0.7636
900 2 0.429734 0.121826 0.687882
323 1 0.366555 0.058138 0.731621
307 1 0.475679 0.0392219 0.756015
880 2 0.200822 0.169948 0.752418
390 1 0.775341 0.316406 0.728364
837 2 0.611621 0.130736 0.747985
449 1 0.584034 0.221194 0.778194
443 1 0.507803 0.202865 0.729495
882 2 0.795812 0.983875 0.772267
830 2 0.906326 0.0675239 0.757186
853 2 0.748929 0.109851 0.737484
385 1 0.7272 0.240506 0.759517
338 1 0.231078 0.282117 0.713754
835 2 0.294518 0.472903 0.752657
848 2 0.16456 0.428212 0.728919
990 2 0.111893 0.305616 0.752737
851 2 0.351928 0.205215 0.734346
373 1 0.402338 0.194958 0.768156
858 2 0.375093 0.523683 0.723699
901 2 0.503566 0.457563 0.748581
375 1 0.634305 0.294199 0.733525
422 1 0.886018 0.401206 0.755221
839 2 0.902716 0.361087 0.711168
855 2 0.0205733 0.485353 0.715709
410 1 0.937247 0.258598 0.748229
460 1 0.783924 0.341152 0.792966
875 2 0.980887 0.520795 0.749696
424 1 0.253117 0.564764 0.68991
473 1 0.152679 0.682276 0.703452
881 2 0.235452 0.586389 0.732159
805 2 0.161247 0.580691 0.765567
896 2 0.331464 0.417262 0.699739
362 1 0.373508 0.666877 0.704287
844 2 0.63531 0.401369 0.709501
360 1 0.525052 0.636168 0.709526
397 1 0.77908 0.467235 0.72004
430 1 0.687765 0.689917 0.744787
935 2 0.624967 0.526343 0.733171
423 1 0.899979 0.586314 0.71663
898 2 0.811695 0.602201 0.754617
384 1 0.0577939 0.656649 0.736555
377 1 0.0190188 0.950207 0.739924
879 2 0.213136 0.722584 0.764816
852 2 0.18629 0.953507 0.746907
398 1 0.064346 0.886401 0.706001
420 1 0.129815 0.786245 0.732476
339 1 0.540212 0.946061 0.722224
318 1 0.331233 0.878665 0.739972
820 2 0.322963 0.735764 0.736287
396 1 0.466989 0.807106 0.743652
897 2 0.577672 0.855578 0.766199
833 2 0.407254 0.749379 0.775125
909 2 0.601137 0.787085 0.704196
886 2 0.718118 0.830691 0.729782
337 1 0.680005 0.964438 0.746114
330 1 0.867533 0.87863 0.727248
892 2 0.00464736 0.737093 0.705737
870 2 0.899452 0.719563 0.73541
413 1 0.0937961 0.291496 0.82238
363 1 0.308648 0.0122001 0.764419
412 1 0.376203 0.99699 0.821681
928 2 0.339467 0.156785 0.807359
354 1 0.604236 0.0567234 0.783672
884 2 0.718201 0.185173 0.799097
429 1 0.489463 0.310677 0.797126
462 1 0.495369 0.15524 0.797728
895 2 0.0524761 0.2092 0.790212
329 1 0.93612 0.303762 0.787784
356 1 0.882023 0.0498085 0.802796
457 1 0.0136412 0.086373 0.822451
876 2 0.915178 0.356229 0.82353
441 1 0.16968 0.40286 0.798419
476 1 0.197202 0.311921 0.850948
408 1 0.27543 0.281076 0.772864
828 2 0.462365 0.318049 0.756329
984 2 0.322371 0.30369 0.80921
380 1 0.595459 0.413434 0.770965
312 1 0.372589 0.407759 0.778822
417 1 0.654293 0.395046 0.810432
889 2 0.732108 0.479559 0.770321
414 1 0.843352 0.498796 0.79893
893 2 0.0472801 0.426791 0.771997
806 2 0.754846 0.266159 0.845069
344 1 0.112199 0.701486 0.802411
912 2 0.157058 0.561911 0.805879
877 2 0.257054 0.706335 0.802908
841 2 0.338625 0.582937 0.771067
857 2 0.386224 0.621561 0.807245
400 1 0.551667 0.821613 0.804149
367 1 0.452541 0.621026 0.747152
910 2 0.475727 0.533006 0.779371
391 1 0.550916 0.672692 0.772456
915 2 0.520331 0.665709 0.816148
405 1 0.601419 0.522293 0.799989
972 2 0.995612 0.637133 0.78049
351 1 0.0010329 0.630945 0.819562
381 1 0.68689 0.646687 0.806315
404 1 0.796831 0.711879 0.78073
411 1 0.893364 0.881052 0.768819
856 2 0.838251 0.639728 0.81663
933 2 0.752994 0.48686 0.837146
942 2 0.063409 0.813236 0.768408
425 1 0.104286 0.922153 0.823639
916 2 0.194984 0.161324 0.800072
406 1 0.0213859 0.793327 0.827199
924 2 0.45118 0.929956 0.778973
941 2 0.258165 0.86006 0.78101
407 1 0.215932 0.00702615 0.798915
383 1 0.413405 0.773165 0.810615
925 2 0.583328 0.960702 0.819135
382 1 0.749712 0.844738 0.767753
421 1 0.752432 0.983759 0.810932
352 1 0.0138204 0.972317 0.792424
899 2 0.902028 0.900029 0.803034
392 1 0.941634 0.763413 0.793392
497 1 0.904947 0.00176675 0.838532
954 2 0.176416 0.0447749 0.842753
956 2 0.164613 0.144496 0.878005
483 1 0.989135 0.0862299 0.871338
428 1 0.156626 0.99234 0.894927
786 2 0.463269 0.17451 0.836437
452 1 0.349294 0.082353 0.856016
463 1 0.425862 0.228215 0.87615
369 1 0.627764 0.0958129 0.832937
481 1 0.603734 0.250297 0.819778
868 2 0.586999 0.213465 0.868871
964 2 0.909233 0.200076 0.825749
976 2 0.783481 0.113728 0.832024
435 1 0.873263 0.187277 0.867639
953 2 0.739548 0.119904 0.876485
30 1 0.858504 0.00295023 0.884557
393 1 0.030542 0.488718 0.805689
968 2 0.0276473 0.254501 0.857823
426 1 0.0681881 0.427273 0.841002
388 1 0.297006 0.454981 0.819339
418 1 0.210631 0.474915 0.848422
378 1 0.460715 0.442763 0.817552
434 1 0.489279 0.322278 0.843215
934 2 0.313769 0.222557 0.838802
501 2 0.326718 0.347471 0.865543
883 2 0.572524 0.484887 0.852648
949 2 0.63076 0.361482 0.869312
440 1 0.517397 0.584369 0.878374
955 2 0.794458 0.400749 0.867952
431 1 0.964275 0.381372 0.865947
966 2 0.929952 0.526774 0.846167
371 1 0.241561 0.617508 0.838138
905 2 0.041945 0.617374 0.857119
461 1 0.0174784 0.749869 0.876222
932 2 0.388366 0.543325 0.85292
878 2 0.287498 0.660654 0.873276
445 1 0.55638 0.726645 0.869773
913 2 0.406752 0.684118 0.842585
919 2 0.637922 0.664268 0.838581
975 2 0.713013 0.523659 0.87971
939 2 0.549677 0.750358 0.911904
944 2 0.914743 0.725466 0.842791
394 1 0.818203 0.859902 0.833885
395 1 0.800695 0.626758 0.856643
890 2 0.178084 0.770483 0.847397
438 1 0.120778 0.843959 0.898123
894 2 0.238266 0.88413 0.870862
940 2 0.40322 0.769947 0.877208
937 2 0.556471 0.895018 0.872469
22 1 0.254908 0.859944 0.819063
401 1 0.392902 0.921291 0.856503
920 2 0.70912 0.821584 0.803648
887 2 0.660169 0.81974 0.840741
917 2 0.504824 0.841697 0.840229
922 2 0.747757 0.979426 0.846941
336 1 0.502256 0.0301939 0.849998
453 1 0.0705877 0.934436 0.865033
911 2 0.926338 0.859118 0.864554
885 2 0.774556 0.867028 0.872958
929 2 0.0672287 0.28212 0.930882
451 1 0.147754 0.11792 0.915506
996 2 0.0248002 0.181516 0.899337
970 2 0.297883 0.0918014 0.896706
995 2 0.257675 0.26968 0.934876
403 1 0.267599 0.255411 0.897632
474 1 0.384068 0.171448 0.918255
923 2 0.421831 0.0187536 0.926749
493 1 0.556079 0.258844 0.903912
866 2 0.449145 0.98261 0.888167
399 1 0.534842 0.0837016 0.902736
484 1 0.607361 0.00818265 0.929474
427 1 0.883378 0.140164 0.918103
450 1 0.692346 0.190704 0.924689
500 1 0.739322 0.0777196 0.949751
437 1 0.964945 0.0185052 0.942734