ITEM: TIMESTEP
4650
ITEM: NUMBER OF ATOMS
1000
ITEM: BOX BOUNDS pp pp pp
0.0000000000000000e+00 6.2996052494743662e+00
0.0000000000000000e+00 6.2996052494743662e+00
0.0000000000000000e+00 2.5198420997897465e+01
ITEM: ATOMS id type xs ys zs
11 1 0.0788749 0.148282 0.03971
51 1 0.197667 0.248131 0.0304289
477 1 0.153246 0.0757503 0.0124237
957 2 0.24208 0.211881 0.992562
951 2 0.206616 0.0353016 0.0566937
58 1 0.637749 0.102716 0.0441049
512 2 0.46068 0.169024 0.0377283
506 2 0.603072 0.249987 0.0637278
983 2 0.733923 0.0171012 0.0135069
14 1 0.699289 0.357592 0.065608
508 2 0.740434 0.228186 0.0438867
980 2 0.637807 0.126915 0.00406719
485 1 0.850467 0.325868 0.0622779
5 1 0.0580855 0.0098404 0.0576044
521 2 0.862848 0.268069 0.0159272
529 2 0.808736 0.0555561 0.0467371
992 2 0.294209 0.42703 -0.00108422
977 2 0.0984197 0.26748 0.998135
545 2 0.31904 0.413648 0.0403544
40 1 0.123698 0.352564 0.0554279
510 2 0.358127 0.289478 0.00634582
518 2 0.399839 0.515118 0.990133
999 2 0.497946 0.371466 0.979684
484 1 0.723547 0.515715 0.979902
33 1 0.596667 0.306128 0.0268323
49 1 0.567706 0.459541 0.0523708
6 1 0.728008 0.412057 0.0241878
989 2 0.61208 0.454652 0.997924
985 2 0.993066 0.266364 0.0479728
981 2 0.989912 0.37076 0.0222567
490 1 0.808092 0.369407 0.992035
15 1 0.905826 0.50643 0.0412101
961 2 0.920346 0.47096 0.996626
511 2 0.171074 0.433984 0.0230502
70 1 0.197313 0.583412 0.0410367
516 2 0.344451 0.566669 0.0339706
47 1 0.301489 0.797215 0.0105609
564 2 0.221715 0.641711 0.0844471
18 1 0.409802 0.722617 0.0433071
4 1 0.511076 0.606663 0.0057505
43 1 0.478472 0.415259 0.0188996
514 2 0.650474 0.584 0.0271484
519 2 0.566773 0.628886 0.0649275
3 1 0.581733 0.723999 0.0224844
24 1 0.742448 0.711272 0.00453185
524 2 0.779727 0.617424 0.0468425
45 1 0.980513 0.671371 0.0301152
100 1 0.0171486 0.697392 0.0679335
17 1 0.85522 0.597479 0.00360157
540 2 0.164702 0.763559 0.0611778
544 2 0.0213817 0.8623 0.989214
1 1 0.160649 0.90675 0.0330545
12 1 0.391149 0.0309022 0.054274
525 2 0.303391 0.891103 0.0449976
27 1 0.464636 0.85777 0.0655327
8 1 0.437118 0.884823 0.0258969
503 2 0.625418 0.939191 0.0622833
504 2 0.583748 0.869237 0.0226604
9 1 0.723971 0.770526 0.0415089
75 1 0.00585101 0.8667 0.027376
976 2 0.865985 0.924971 0.00741693
505 2 0.857533 0.772049 0.0209006
500 1 0.875398 0.824027 0.97854
530 2 0.0986223 0.0854231 0.0889275
532 2 0.220253 0.168908 0.109248
77 1 0.178688 0.276354 0.141889
26 1 0.207783 0.964879 0.109344
13 1 0.349872 0.122528 0.0909087
526 2 0.50054 0.175962 0.0850348
36 1 0.347085 0.0255117 0.121474
63 1 0.380257 0.263263 0.104945
528 2 0.690864 0.133233 0.0868896
527 2 0.587874 0.191659 0.11872
59 1 0.853266 0.118576 0.133456
34 1 0.957407 0.057018 0.10201
80 1 0.956421 0.121445 0.0612112
35 1 0.105823 0.254171 0.0888573
61 1 0.26346 0.280802 0.0791257
89 1 0.116903 0.399322 0.1015
7 1 0.298177 0.147837 0.0529994
517 2 0.35788 0.414036 0.0870789
538 2 0.439809 0.291843 0.0617683
559 2 0.820182 0.425055 0.091379
998 2 0.502048 0.494616 0.086134
558 2 0.542643 0.338082 0.09037
562 2 0.679064 0.437039 0.105885
553 2 0.740215 0.286156 0.101881
88 1 0.795803 0.396754 0.132252
10 1 0.0671651 0.527831 0.0513156
533 2 0.870924 0.198457 0.0900487
509 2 -0.00718426 0.406852 0.0767723
99 1 0.909613 0.339799 0.111176
64 1 0.940958 0.495542 0.119606
86 1 0.230053 0.478723 0.0698509
560 2 0.0957004 0.759372 0.0990054
71 1 0.901199 0.837114 0.0913428
38 1 0.330798 0.561409 0.110321
23 1 0.560477 0.720393 0.0996937
42 1 0.375729 0.568177 0.071567
537 2 0.526831 0.617111 0.123326
50 1 0.731985 0.501747 0.0697354
539 2 0.645545 0.695426 0.136873
543 2 0.678046 0.625259 0.093723
549 2 0.757855 0.757829 0.101612
513 2 0.8462 0.659405 0.119404
39 1 0.989353 0.647548 0.101365
565 2 0.917132 0.571924 0.0755328
95 1 0.880991 0.719005 0.0568232
502 2 0.143381 0.907516 0.0781535
542 2 0.262831 0.795109 0.0922439
37 1 0.322022 0.928453 0.0826537
550 2 0.410088 0.725942 0.0791487
546 2 0.453002 0.839931 0.103139
28 1 0.492596 0.00209567 0.0798672
523 2 0.589403 0.79322 0.0658527
548 2 0.593621 0.885063 0.108619
572 2 0.513437 0.798603 0.13798
573 2 0.607924 0.0340876 0.104975
74 1 0.702446 0.863133 0.135807
55 1 0.00438226 0.906287 0.111882
534 2 0.819435 0.0504469 0.0822624
69 1 0.0161702 0.867682 0.0650595
574 2 0.873201 0.895356 0.0502243
551 2 0.250789 0.113529 0.150077
555 2 0.114663 0.0547357 0.130584
576 2 0.954638 0.113955 0.166442
82 1 0.202634 0.115058 0.199055
81 1 0.108367 0.138688 0.171611
52 1 0.444346 0.147224 0.125728
571 2 0.323895 0.0121588 0.17461
54 1 0.71467 0.239214 0.139367
78 1 0.711285 0.0659991 0.141103
83 1 0.539586 0.182792 0.169556
600 2 0.973258 0.99052 0.144019
554 2 0.881734 0.276644 0.145874
598 2 0.988304 0.189521 0.122902
79 1 0.80256 0.141454 0.16864
65 1 0.2094 0.435179 0.127234
556 2 0.236461 0.388567 0.167758
85 1 0.0908022 0.429679 0.171902
56 1 0.323925 0.306859 0.135484
552 2 0.500316 0.310379 0.125694
53 1 0.380906 0.173815 0.175293
57 1 0.434589 0.314063 0.161105
62 1 0.506151 0.453177 0.143653
557 2 0.537416 0.323776 0.188406
92 1 0.645152 0.366126 0.160992
112 1 0.673818 0.229834 0.194277
84 1 0.826275 0.286119 0.197244
60 1 0.999438 0.278801 0.170463
535 2 0.04104 0.347206 0.133431
90 1 0.635486 0.535882 0.150445
94 1 0.897285 0.451006 0.161754
41 1 0.115753 0.614886 0.122006
570 2 0.224625 0.700509 0.141367
590 2 0.187266 0.563064 0.155763
547 2 0.37031 0.704795 0.118369
531 2 0.34555 0.503844 0.150439
91 1 0.345749 0.656385 0.161009
116 1 0.48741 0.580592 0.168759
536 2 0.566454 0.736563 0.172917
68 1 0.779981 0.735958 0.162136
587 2 0.663987 0.68607 0.192264
66 1 0.0259942 0.544035 0.154519
563 2 0.837756 0.582462 0.152301
96 1 0.854992 0.828282 0.129207
541 2 0.984008 0.683438 0.139383
76 1 0.1109 0.836887 0.133444
566 2 0.257391 0.798619 0.166941
101 1 0.253879 0.936771 0.144145
48 1 0.406476 0.879498 0.162697
567 2 0.32426 0.831524 0.204691
72 1 0.425031 0.764625 0.18277
97 1 0.34137 0.836495 0.131183
93 1 0.586917 0.969051 0.156238
73 1 0.490084 0.976101 0.122121
98 1 0.442533 0.0803055 0.154884
569 2 0.676221 0.893895 0.190358
614 2 0.835363 0.868009 0.189403
44 1 0.841503 0.973114 0.118364
575 2 0.757711 0.895215 0.0810045
125 1 0.8133 0.986086 0.161008
605 2 0.962827 0.953469 0.177878
580 2 0.124529 0.907804 0.172528
106 1 0.0563678 0.261991 0.28937
581 2 0.201701 0.252131 0.180626
582 2 0.113232 0.175409 0.227812
110 1 0.986332 0.0805467 0.231494
602 2 0.336344 0.0367567 0.217642
108 1 0.479525 0.0726321 0.197169
603 2 0.480517 0.104362 0.23851
128 1 0.292791 0.220947 0.213609
577 2 0.645365 0.0554565 0.187023
578 2 0.613258 0.136371 0.226665
103 1 0.521505 0.954301 0.233912
104 1 0.94639 0.154343 0.268047
604 2 0.925922 0.130819 0.201666
599 2 0.795467 0.0084363 0.200087
579 2 0.779388 0.164978 0.22791
593 2 0.679459 0.966161 0.231686
623 2 0.817326 0.0728311 0.269143
610 2 0.191196 0.412352 0.206794
585 2 0.032691 0.334384 0.202865
615 2 0.967996 0.473901 0.192629
137 1 0.225445 0.320547 0.24077
140 1 0.0954587 0.403359 0.23478
611 2 0.329277 0.426807 0.22984
586 2 0.391262 0.52852 0.209891
87 1 0.376483 0.373849 0.192142
632 2 0.372922 0.262937 0.242957
583 2 0.475922 0.212484 0.209433
139 1 0.58057 0.492867 0.193197
635 2 0.629482 0.360744 0.219567
109 1 0.826559 0.340832 0.237977
584 2 0.792026 0.464738 0.267182
609 2 0.985204 0.252076 0.232205
595 2 0.114504 0.707417 0.16847
122 1 0.182482 0.701491 0.207569
111 1 0.119967 0.554288 0.19955
561 2 0.27372 0.531095 0.187055
607 2 0.207089 0.535534 0.232878
591 2 0.324664 0.663601 0.202242
613 2 0.416976 0.699789 0.245279
592 2 0.588156 0.546136 0.234627
589 2 0.75316 0.423563 0.181607
67 1 0.518013 0.65336 0.201983
639 2 0.743784 0.461601 0.219164
113 1 0.828947 0.615296 0.191667
588 2 0.994725 0.64128 0.183235
141 1 0.0129527 0.55097 0.240205
115 1 0.897646 0.466173 0.224811
146 1 0.913543 0.685695 0.247953
601 2 0.0690241 0.0310811 0.199751
596 2 0.0563658 0.800808 0.189226
102 1 0.218317 0.9491 0.200603
621 2 0.127648 0.851993 0.228787
597 2 0.505298 0.914413 0.196062
622 2 0.387207 0.898062 0.231163
568 2 0.594402 0.782089 0.219139
618 2 0.796199 0.591237 0.232513
123 1 0.768258 0.807179 0.224904
121 1 0.0447221 0.682065 0.222885
120 1 0.952751 0.809506 0.162733
105 1 0.995416 0.889969 0.218685
594 2 0.922001 0.7628 0.213169
606 2 0.184943 0.191899 0.264596
157 1 0.337719 0.23064 0.281604
151 1 0.211865 0.192893 0.304843
107 1 0.273091 0.113997 0.244765
647 2 0.491119 0.154548 0.280815
133 1 0.463896 0.303968 0.29784
134 1 0.56905 0.260272 0.247182
129 1 0.582367 0.981118 0.269606
628 2 0.615112 0.325441 0.30518
160 1 0.653402 0.127627 0.266962
124 1 0.830908 0.983432 0.234741
126 1 0.893963 0.142036 0.302534
630 2 0.71179 0.950461 0.289252
132 1 0.297816 0.366009 0.296881
136 1 0.0267969 0.411123 0.299411
637 2 0.173969 0.389509 0.272228
657 2 0.126834 0.338786 0.319832
163 1 0.29555 0.72376 0.275074
638 2 0.385748 0.360209 0.268136
119 1 0.53901 0.411186 0.268584
634 2 0.480977 0.40697 0.223629
665 2 0.656167 0.470541 0.293815
135 1 0.681924 0.341828 0.266018
145 1 0.978185 0.406509 0.259576
640 2 0.883229 0.30145 0.283794
161 1 0.751248 0.354889 0.313295
616 2 0.159834 0.66183 0.252855
617 2 0.279331 0.516133 0.270992
641 2 0.0854572 0.746036 0.318173
642 2 0.19923 0.625732 0.296404
636 2 0.109381 0.533236 0.272674
608 2 0.419168 0.534158 0.254992
117 1 0.275239 0.781286 0.240834
148 1 0.450149 0.764253 0.293273
114 1 0.572071 0.708607 0.247883
619 2 0.668653 0.601199 0.267037
143 1 0.582877 0.618826 0.297778
144 1 0.671719 0.818609 0.272891
645 2 0.762482 0.556366 0.310747
166 1 0.921403 0.54433 0.276351
625 2 0.0295779 0.720318 0.274147
150 1 0.0876983 0.0704436 0.272172
650 2 0.133041 0.01636 0.237358
172 1 0.0934143 0.917201 0.267223
626 2 0.167662 0.998104 0.301814
152 1 0.23402 0.914924 0.256557
127 1 0.393601 0.993924 0.260542
147 1 0.31257 0.911023 0.288975
672 2 0.171938 0.795082 0.285347
627 2 0.321205 0.0695254 0.28837
130 1 0.807385 0.875438 0.261639
118 1 0.490763 0.83591 0.26154
624 2 0.576196 0.856668 0.308466
649 2 0.950717 0.849953 0.264046
644 2 0.768678 0.715143 0.278857
646 2 0.86187 0.823685 0.298847
175 1 0.958801 1.00074 0.268826
651 2 0.16934 0.266007 0.351092
652 2 0.193891 0.0994146 0.335395
671 2 -0.00173888 0.0372535 0.30734
677 2 0.0935169 0.119871 0.371519
182 1 0.996658 0.254541 0.359206
153 1 0.481234 0.970771 0.298122
653 2 0.590714 0.151429 0.311174
183 1 0.308753 0.123531 0.358089
178 1 0.381407 0.981914 0.360229
164 1 0.572017 0.0983445 0.350282
655 2 0.747338 0.0840532 0.32528
154 1 0.604142 0.989082 0.325351
673 2 0.448434 0.0619403 0.330018
131 1 0.722185 0.183012 0.297769
660 2 0.833798 0.267911 0.374877
680 2 0.860637 0.169218 0.337189
612 2 0.201246 0.468411 0.322101
156 1 0.0476368 0.201559 0.32549
662 2 0.238134 0.405258 0.354211
187 1 0.0228469 0.410746 0.342451
158 1 0.301965 0.25713 0.330571
138 1 0.442622 0.496115 0.293984
188 1 0.397023 0.333037 0.365909
663 2 0.489025 0.466277 0.361705
633 2 0.412665 0.391737 0.32929
169 1 0.589792 0.494362 0.33229
165 1 0.707203 0.200336 0.346182
190 1 0.571538 0.331198 0.343852
185 1 0.740326 0.378788 0.349663
661 2 0.901289 0.491707 0.317594
656 2 0.933352 0.324844 0.322375
631 2 0.122809 0.523944 0.362308
162 1 0.225754 0.621623 0.337699
167 1 0.0794299 0.55993 0.321745
667 2 0.177178 0.883238 0.321242
192 1 0.969733 0.546135 0.351326
142 1 0.405403 0.639383 0.305626
168 1 0.32775 0.738965 0.345509
692 2 0.342281 0.509549 0.346454
643 2 0.458751 0.599067 0.33996
173 1 0.477679 0.753728 0.358297
170 1 0.602915 0.677384 0.332437
664 2 0.659159 0.599025 0.360828
193 1 0.620341 0.735143 0.375924
620 2 0.938296 0.653788 0.302755
171 1 0.936614 0.76766 0.337207
195 1 0.749362 0.718644 0.330183
666 2 0.80517 0.592528 0.35252
197 1 0.00500123 0.879024 0.300141
177 1 0.296644 0.976614 0.323617
176 1 0.12557 0.968381 0.357123
696 2 0.0987601 0.818773 0.352604
648 2 0.283378 0.767038 0.308841
198 1 0.428845 0.860217 0.325233
629 2 0.705594 0.973408 0.355811
149 1 0.604287 0.873342 0.346686
670 2 0.734685 0.878249 0.323576
155 1 0.85588 0.992607 0.303161
180 1 0.854247 0.986343 0.341066
196 1 0.970683 0.9096 0.358679
674 2 0.816559 0.841056 0.356128
681 2 0.0572375 0.110489 0.412386
201 1 0.233211 0.996169 0.381375
675 2 0.998563 0.051516 0.343875
706 2 0.212971 0.1295 0.399992
700 2 0.0786691 0.982765 0.395093
208 1 0.471845 0.107913 0.379992
682 2 0.265167 0.260312 0.385021
679 2 0.67956 0.295505 0.379789
179 1 0.63886 0.147302 0.39425
204 1 0.706386 0.0223299 0.398797
703 2 0.552538 0.020717 0.41668
678 2 0.526849 0.272178 0.389533
654 2 0.776092 0.101888 0.370367
699 2 0.939526 0.125686 0.378233
212 1 0.0753094 0.267621 0.395659
687 2 0.154832 0.415291 0.393241
237 1 0.143257 0.322554 0.435775
710 2 0.0118804 0.395188 0.377155
683 2 0.496607 0.437015 0.399232
688 2 0.337901 0.451066 0.384351
213 1 0.388152 0.584023 0.410933
707 2 0.383517 0.342259 0.411144
658 2 0.425681 0.215183 0.341098
159 1 0.620341 0.457127 0.368751
184 1 0.696176 0.201019 0.431521
659 2 0.782708 0.398808 0.39621
181 1 0.938019 0.26242 0.400511
211 1 0.868152 0.426468 0.360699
686 2 0.0528087 0.525993 0.39523
691 2 0.0550396 0.683242 0.361446
217 1 0.246483 0.557882 0.396536
717 2 0.311782 0.723046 0.407001
218 1 0.383826 0.638138 0.373642
222 1 0.203301 0.683246 0.371773
718 2 0.477553 0.712317 0.407994
189 1 0.538496 0.584643 0.390486
693 2 0.678808 0.657897 0.404309
669 2 0.767114 0.691154 0.375524
690 2 0.764674 0.550627 0.3886
689 2 0.660991 0.496548 0.415418
186 1 0.913241 0.612507 0.383726
191 1 0.9419 0.759113 0.374881
685 2 0.928158 0.46206 0.411516
216 1 0.0368969 0.692741 0.402388
247 1 0.125735 0.842609 0.390404
676 2 0.254217 0.88618 0.354227
697 2 0.282497 0.847676 0.392114
698 2 0.533457 0.952106 0.381555
223 1 0.41079 0.85216 0.38041
203 1 0.377896 0.966878 0.408579
194 1 0.693651 0.793417 0.433884
174 1 0.727527 0.871249 0.3913
668 2 0.564544 0.83695 0.413665
199 1 0.825761 0.779838 0.410925
221 1 0.965923 0.847678 0.405228
205 1 0.84714 0.963021 0.379804
231 1 0.122266 0.00932139 0.438894
202 1 0.285319 0.0652041 0.437709
207 1 0.421946 0.102286 0.420932
232 1 0.273103 0.234382 0.426949
708 2 0.408793 0.986568 0.451399
233 1 0.481521 0.105446 0.466676
704 2 0.626967 0.0842047 0.4554
229 1 0.539405 0.186558 0.43295
749 2 0.739323 0.0502369 0.432989
206 1 0.908666 0.0739765 0.415266
209 1 0.798214 0.170534 0.406226
230 1 0.836904 0.159183 0.446654
705 2 0.905144 0.0159544 0.458051
235 1 0.989004 0.179421 0.442132
236 1 0.142949 0.160193 0.446606
711 2 0.0775444 0.460113 0.428173
736 2 0.146715 0.418797 0.461731
712 2 0.310212 0.379539 0.460397
238 1 0.392733 0.476362 0.434632
214 1 0.413611 0.261054 0.459591
684 2 0.54065 0.362445 0.428414
709 2 0.678749 0.395658 0.441321
234 1 0.620558 0.258469 0.460359
215 1 0.812286 0.485359 0.438401
210 1 0.846991 0.311412 0.428106
715 2 0.947245 0.406101 0.454035
695 2 0.169545 0.630039 0.423624
242 1 0.235428 0.457409 0.425641
246 1 0.0144854 0.719924 0.461505
241 1 0.0777321 0.57634 0.457523
272 1 0.221194 0.572334 0.467332
716 2 0.38895 0.631348 0.445608
243 1 0.348793 0.723655 0.48177
737 2 0.430614 0.521269 0.471159
714 2 0.657303 0.478334 0.477759
713 2 0.520481 0.56308 0.431979
694 2 0.690276 0.606982 0.448774
244 1 0.560011 0.722606 0.441384
200 1 0.831881 0.605615 0.416928
240 1 0.837557 0.630531 0.452423
220 1 0.974206 0.589755 0.428197
701 2 0.0578729 0.94639 0.484788
720 2 0.135452 0.813761 0.429268
721 2 0.209611 0.930154 0.416003
725 2 0.98726 0.936673 0.43653
746 2 0.13931 0.816908 0.469137
741 2 0.26052 0.722042 0.450188
722 2 0.290558 0.864587 0.461524
723 2 0.38017 0.822826 0.426052
748 2 0.469109 0.824336 0.456606
224 1 0.611902 0.913698 0.449695
719 2 0.670948 0.746014 0.472511
724 2 0.825978 0.934613 0.430433
225 1 0.883607 0.76709 0.443697
250 1 0.76376 0.863783 0.463045
726 2 0.210464 0.00673423 0.468547
252 1 0.0774321 0.103968 0.550448
727 2 0.168533 0.0957777 0.499611
731 2 0.0904861 0.227429 0.50852
702 2 0.349755 0.00235293 0.487137
228 1 0.353104 0.0628423 0.521675
729 2 0.535583 0.0899523 0.501494
255 1 0.742564 0.0141908 0.471982
754 2 0.793045 0.147585 0.516862
259 1 0.726538 0.183607 0.48363
730 2 0.864115 0.12431 0.482735
755 2 0.0166771 0.135973 0.483629
799 2 0.929358 0.238594 0.508326
257 1 0.29449 0.14895 0.473958
261 1 0.210283 0.277752 0.486748
265 1 0.0601997 0.436185 0.488341
732 2 0.403787 0.360876 0.491267
733 2 0.382021 0.206823 0.501752
763 2 0.542675 0.429465 0.507929
262 1 0.258339 0.45702 0.49405
728 2 0.517574 0.266882 0.491066
239 1 0.534574 0.403724 0.463807
739 2 0.77123 0.300044 0.458977
284 1 0.650725 0.225354 0.523803
734 2 0.911466 0.268528 0.473118
264 1 0.791495 0.319422 0.499281
735 2 0.0810747 0.273096 0.467977
260 1 0.930918 0.397821 0.503012
245 1 0.80122 0.436107 0.470886
267 1 0.0610638 0.814054 0.510162
266 1 0.0957059 0.655316 0.489463
248 1 0.467049 0.703721 0.510063
742 2 0.343274 0.595354 0.502736
263 1 0.398005 0.462627 0.523934
219 1 0.644015 0.651381 0.502841
738 2 0.511773 0.664311 0.475104
269 1 0.680495 0.473617 0.523181
769 2 0.567543 0.75503 0.543068
744 2 0.805375 0.522511 0.50273
740 2 0.954146 0.549636 0.477388
275 1 0.8159 0.752017 0.488148
296 1 0.947947 0.695842 0.501582
770 2 0.935218 0.564896 0.528101
227 1 0.193237 0.937038 0.503219
251 1 0.0453054 1.00084 0.524723
745 2 0.941541 0.850346 0.474839
271 1 0.963642 0.86499 0.556874
793 2 0.186831 0.831383 0.540148
254 1 0.503257 0.956208 0.482166
747 2 0.203404 0.782164 0.501393
772 2 0.399304 0.85575 0.499766
249 1 0.5478 0.813258 0.492874
253 1 0.437913 0.849916 0.539437
274 1 0.713449 0.961161 0.505618
774 2 0.681451 0.799679 0.508956
226 1 0.860785 0.977777 0.491424
750 2 0.900517 0.838565 0.515213
276 1 0.157139 0.230255 0.594254
282 1 0.266081 0.133551 0.587727
751 2 0.242591 0.201153 0.522408
278 1 0.202003 0.0568449 0.5366
258 1 0.32033 0.26946 0.548263
283 1 0.353874 0.0975352 0.555979
303 1 0.475182 0.974483 0.558541
778 2 0.509117 0.173285 0.545353
309 1 0.675776 0.0664536 0.535215
285 1 0.742113 0.0689123 0.570946
310 1 0.648077 0.195882 0.560704
780 2 0.90182 0.133678 0.556243
776 2 0.993233 0.297468 0.594203
756 2 0.143498 0.310271 0.553935
760 2 0.150895 0.370544 0.515369
758 2 0.445114 0.293082 0.527414
288 1 0.403518 0.252866 0.586507
757 2 0.289028 0.355545 0.52092
762 2 0.300928 0.423806 0.554959
764 2 0.603612 0.3629 0.537195
289 1 0.527978 0.169233 0.587756
290 1 0.729719 0.351232 0.559664
788 2 0.472342 0.360732 0.560128
789 2 0.65529 0.476986 0.57045
256 1 0.0104501 0.244114 0.551161
281 1 0.8223 0.229261 0.575673
759 2 0.824542 0.255117 0.537014
765 2 0.927326 0.385166 0.558928
761 2 0.0870678 0.528338 0.518528
291 1 0.0824889 0.458377 0.55896
292 1 0.215006 0.527687 0.576327
766 2 0.994458 0.705156 0.535011
767 2 0.159235 0.686018 0.531445
817 2 0.223039 0.677525 0.573213
293 1 0.302636 0.591979 0.543524
323 1 0.371075 0.689829 0.585787
268 1 0.514238 0.503644 0.552939
743 2 0.523149 0.573171 0.517772
319 1 0.529994 0.634441 0.584457
294 1 0.625589 0.60306 0.550908
270 1 0.819486 0.414084 0.531563
300 1 0.805381 0.713441 0.530194
791 2 0.920637 0.588005 0.564551
790 2 0.813503 0.470925 0.572552
771 2 0.123288 0.94066 0.559403
298 1 0.0748347 0.772804 0.566575
752 2 0.297318 0.924514 0.52393
273 1 0.311658 0.753975 0.527966
753 2 0.500349 0.971274 0.523019
322 1 0.308134 0.823527 0.56731
773 2 0.486226 0.801798 0.578926
279 1 0.782927 0.875448 0.539331
768 2 0.436407 0.662512 0.5458
299 1 0.73946 0.745009 0.55992
779 2 0.609371 0.90597 0.538202
325 1 0.656126 0.901029 0.572802
775 2 0.895921 0.0145432 0.533878
297 1 0.893226 0.731495 0.562973
796 2 0.984211 1.00066 0.57602
295 1 0.784251 0.564106 0.539232
800 2 0.843892 0.94676 0.575672
277 1 0.117048 0.0711686 0.585875
802 2 0.0891288 0.143244 0.659773
327 1 0.0565241 0.993512 0.616847
781 2 0.991877 0.216172 0.636637
783 2 0.397134 0.0805915 0.593599
777 2 0.287811 0.020693 0.629707
304 1 0.472291 0.0615839 0.628639
808 2 0.381904 0.200614 0.621895
308 1 0.606299 0.0434435 0.571819
804 2 0.697394 0.231116 0.604345
809 2 0.537162 0.217571 0.624663
301 1 0.858958 0.142637 0.639674
280 1 0.749513 0.985892 0.60684
784 2 0.83466 0.116617 0.601849
321 1 0.0248673 0.151794 0.601269
331 1 0.0663094 0.369533 0.627531
312 1 0.255498 0.405154 0.624541
286 1 0.138872 0.433417 0.597619
782 2 0.267489 0.339156 0.589432
307 1 0.246929 0.256366 0.620927
787 2 0.505306 0.446262 0.594767
314 1 0.593594 0.318594 0.588449
313 1 0.613287 0.541367 0.609995
340 1 0.752533 0.411256 0.652156
785 2 0.663948 0.37298 0.620462
315 1 0.776561 0.504591 0.616581
810 2 0.832287 0.297178 0.60984
311 1 0.950516 0.465358 0.591351
840 2 0.916743 0.407711 0.627139
287 1 0.0712321 0.618282 0.563291
317 1 0.285839 0.55031 0.613054
316 1 0.155516 0.517596 0.634248
342 1 0.144869 0.619972 0.601584
792 2 0.373613 0.536988 0.577213
818 2 0.302997 0.698938 0.621936
338 1 0.432398 0.57604 0.622973
794 2 0.721213 0.601568 0.583784
814 2 0.741632 0.686937 0.610456
813 2 0.539616 0.665668 0.628933
320 1 0.881937 0.606358 0.601362
815 2 0.850137 0.684824 0.637205
816 2 0.987798 0.549562 0.627952
797 2 -0.00199904 0.69693 0.591105
798 2 0.175774 0.83152 0.589851
302 1 0.157748 0.117779 0.624346
821 2 0.0275447 0.844746 0.602411
347 1 0.151859 0.740478 0.626745
819 2 0.485153 0.796622 0.620005
822 2 0.278462 0.98645 0.575
823 2 0.462705 0.934707 0.593786
348 1 0.338292 0.847804 0.604349
324 1 0.611874 0.767616 0.59587
824 2 0.592476 0.954082 0.612601
349 1 0.701172 0.857715 0.620267
326 1 0.91383 0.973903 0.613853
795 2 0.885884 0.817733 0.598161
346 1 0.984175 0.747671 0.628163
820 2 0.846425 0.865264 0.633874
328 1 0.19121 0.88772 0.62519
332 1 0.172304 0.0443248 0.687453
357 1 0.951782 0.160986 0.682751
803 2 0.3161 0.133141 0.65747
334 1 0.510766 0.0546728 0.668364
849 2 0.618575 0.100908 0.630763
335 1 0.455316 0.174162 0.654367
829 2 0.407435 0.124267 0.6912
306 1 0.740822 0.260421 0.641635
826 2 0.885221 0.299527 0.658398
305 1 0.821587 0.991814 0.648882
850 2 0.67314 0.0341598 0.667829
356 1 0.780095 0.172692 0.677919
801 2 0.0645841 0.304999 0.663505
786 2 0.178445 0.379967 0.685538
806 2 0.961328 0.42633 0.66084
832 2 0.197938 0.23825 0.664168
837 2 0.462054 0.504521 0.65723
807 2 0.300678 0.440867 0.660714
333 1 0.392445 0.383734 0.610652
364 1 0.322806 0.292648 0.682368
833 2 0.384083 0.329357 0.647653
339 1 0.527183 0.427175 0.630221
834 2 0.622304 0.510607 0.657419
835 2 0.636558 0.340508 0.663885
359 1 0.475787 0.35149 0.684516
336 1 0.840445 0.462722 0.687635
812 2 0.077528 0.554649 0.668576
836 2 0.118628 0.783534 0.665882
862 2 0.188596 0.664646 0.688881
318 1 0.306731 0.584174 0.653406
838 2 0.364285 0.56961 0.692373
343 1 0.387247 0.707055 0.651559
839 2 0.688013 0.637669 0.64318
344 1 0.517927 0.656185 0.674083
844 2 0.513685 0.503812 0.695214
365 1 0.706066 0.459436 0.699977
811 2 0.839064 0.54055 0.651919
341 1 1.00045 0.676981 0.664334
366 1 0.747318 0.739261 0.667325
842 2 0.27441 0.833578 0.654392
846 2 0.982386 0.911099 0.64418
847 2 0.192615 0.848088 0.697365
372 1 0.130981 0.943155 0.659843
841 2 0.0166914 0.843344 0.69224
329 1 0.432917 0.928406 0.639859
843 2 0.355539 0.768457 0.692926
827 2 0.341248 0.985974 0.668925
828 2 0.450284 0.679863 0.708805
345 1 0.608812 0.801515 0.648292
350 1 0.562449 0.935835 0.652535
374 1 0.46407 0.826105 0.669184
825 2 0.905242 0.796911 0.669687
845 2 0.7286 0.875732 0.687548
851 2 0.123396 0.199903 0.703762
852 2 0.0897382 0.0659124 0.720346
377 1 0.242942 0.113849 0.739451
881 2 0.175021 0.329231 0.727878
900 2 0.0621575 0.0720511 0.758921
358 1 0.276103 0.149583 0.706326
355 1 0.563971 0.148933 0.706347
353 1 0.429928 0.240886 0.717366
330 1 0.629663 0.186671 0.663345
375 1 0.577744 0.936537 0.690923
855 2 0.71042 0.105997 0.712721
879 2 0.79382 0.981104 0.73747
385 1 0.688573 0.233084 0.761442
351 1 0.968347 0.181887 0.72865
830 2 0.8077 0.196296 0.730651
381 1 0.125192 0.226677 0.752772
831 2 0.0776094 0.438313 0.716319
363 1 0.250998 0.474352 0.736053
387 1 0.0901664 0.552252 0.75493
389 1 0.412175 0.370804 0.736115
889 2 0.548781 0.532592 0.740463
360 1 0.669166 0.268976 0.712524
805 2 0.983424 0.311507 0.695536
337 1 0.779836 0.584218 0.716998
361 1 0.780123 0.318081 0.685251
859 2 0.595741 0.358362 0.758753
384 1 0.880528 0.353889 0.72548
362 1 0.973181 0.549195 0.694746
368 1 0.201174 0.520153 0.699987
861 2 0.0783463 0.662664 0.711804
386 1 0.971249 0.547699 0.731938
886 2 0.1152 0.726829 0.742794
867 2 0.246161 0.804615 0.753145
369 1 0.392096 0.522362 0.725577
848 2 0.295581 0.652151 0.726165
863 2 0.315265 0.415869 0.703491
393 1 0.341485 0.553957 0.766164
898 2 0.390397 0.764987 0.752982
864 2 0.553016 0.382402 0.71749
370 1 0.63715 0.603107 0.701543
868 2 0.5545 0.712237 0.736651
860 2 0.851474 0.634604 0.68194
865 2 0.917285 0.679526 0.717872
870 2 0.759608 0.725639 0.717377
390 1 0.709777 0.418899 0.738248
890 2 0.851413 0.496578 0.752788
872 2 0.224018 0.977113 0.720656
367 1 0.0859484 0.903026 0.733649
371 1 0.925066 0.79658 0.746369
373 1 0.319688 0.854979 0.719316
873 2 0.439398 0.981084 0.715025
379 1 0.481047 0.83295 0.727023
423 1 0.390649 0.989481 0.756101
869 2 0.69258 0.878031 0.724535
874 2 0.608577 0.777125 0.70026
400 1 0.466361 0.632885 0.758775
380 1 0.542708 0.0452358 0.741595
352 1 0.0159793 0.99624 0.683682
875 2 0.855578 0.85307 0.709711
871 2 0.951167 0.998519 0.721444
376 1 0.856039 0.0283416 0.694801
396 1 0.781986 0.812998 0.753996
383 1 0.168615 0.0299438 0.790106
880 2 0.998421 0.159214 0.781415
402 1 0.0736941 0.143116 0.822684
403 1 0.294737 0.9448 0.815012
354 1 0.428425 0.15425 0.75332
882 2 0.303257 0.255976 0.739983
382 1 0.324194 0.0579713 0.789063
883 2 0.410894 0.16212 0.800786
853 2 0.690965 0.0822841 0.756287
924 2 0.593924 0.149401 0.789394
876 2 0.877314 0.0952444 0.757194
922 2 0.991734 0.0206687 0.796583
405 1 0.821506 0.172032 0.788623
435 1 0.921312 0.294845 0.767669
858 2 0.144432 0.390749 0.760944
856 2 0.991338 0.424458 0.760058
411 1 0.172353 0.374437 0.799607
407 1 0.044698 0.285016 0.803778
857 2 0.314403 0.403544 0.767512
854 2 0.408547 0.273717 0.778121
934 2 0.501096 0.322698 0.826108
412 1 0.313318 0.318628 0.810569
388 1 0.567438 0.295619 0.792046
413 1 0.231366 0.196827 0.776113
909 2 0.555135 0.202337 0.739531
888 2 0.620071 0.36755 0.848795
414 1 0.697354 0.479343 0.781093
410 1 0.72475 0.304483 0.805521
440 1 0.735377 0.459552 0.826692
884 2 0.780909 0.359722 0.763335
915 2 0.89954 0.452392 0.796429
885 2 0.960623 0.578266 0.78687
866 2 0.245525 0.653399 0.767677
422 1 0.0485276 0.734132 0.779196
893 2 0.40277 0.614398 0.797265
892 2 0.474629 0.420979 0.771456
406 1 0.267484 0.502526 0.797273
919 2 0.53561 0.718622 0.803314
394 1 0.567097 0.563312 0.78194
399 1 0.639213 0.776852 0.768053
887 2 0.58921 0.448258 0.811541
391 1 0.697332 0.595654 0.750082
395 1 0.795167 0.597189 0.781581
895 2 0.895704 0.663416 0.75678
398 1 0.0452085 0.893803 0.777048
897 2 0.118254 0.950914 0.822727
428 1 0.979219 0.850409 0.813604
397 1 0.233828 0.957877 0.756517
378 1 0.502233 0.0410158 0.778259
430 1 0.338786 0.874553 0.782816
404 1 0.487241 0.883808 0.775572
899 2 0.701041 0.826252 0.80067
425 1 0.635671 0.931095 0.771679
420 1 0.83331 0.761758 0.783224
896 2 0.878978 0.902283 0.772408
920 2 0.761393 0.975287 0.798627
877 2 0.263519 0.135473 0.816328
447 1 0.101622 0.0792245 0.887232
431 1 0.184503 0.0271012 0.850298
426 1 0.106052 0.220333 0.854663
878 2 0.346479 0.0412956 0.838947
409 1 0.34985 0.224869 0.839315
427 1 0.405322 0.118868 0.871499
434 1 0.495858 0.111725 0.833672
908 2 0.259912 0.155633 0.862239
904 2 0.768637 0.121083 0.82263
949 2 0.623498 0.0106837 0.808478
964 2 0.630286 0.196074 0.822949
417 1 0.912818 0.134133 0.822075
450 1 0.835401 0.999343 0.837193
401 1 0.0133905 0.958882 0.844211
429 1 0.69329 0.226641 0.866284
416 1 0.0558393 0.475283 0.81357
912 2 0.97639 0.272098 0.839859
418 1 0.273188 0.458524 0.836115
937 2 0.196266 0.304543 0.835392
436 1 0.960261 0.293649 0.882502
439 1 0.3088 0.481725 0.877823
933 2 0.633122 0.373072 0.89467
939 2 0.638948 0.582124 0.823258
935 2 0.783114 0.310357 0.843051
894 2 0.481075 0.448036 0.845614
469 1 0.80055 0.477542 0.85945
931 2 0.851916 0.158982 0.871117
930 2 0.883435 0.294249 0.804384
944 2 0.917549 0.49284 0.831331
891 2 0.131719 0.578829 0.791821
940 2 0.195628 0.574844 0.856051
473 1 0.120485 0.717206 0.818869
392 1 0.268096 0.641515 0.820141
443 1 0.412667 0.450887 0.810491
917 2 0.307786 0.720847 0.85141
419 1 0.441187 0.738845 0.874677
942 2 0.37063 0.582282 0.852417
415 1 0.685612 0.682978 0.799477
914 2 0.664983 0.733798 0.83736
938 2 0.549907 0.637068 0.855266
910 2 0.0142091 0.59439 0.841484
911 2 0.92377 0.712054 0.809703
441 1 0.0373342 0.549118 0.877765
445 1 0.811334 0.609572 0.826651
945 2 0.829334 0.632421 0.894329
946 2 0.84935 0.697051 0.858831
921 2 0.951673 0.799011 0.851216
499 1 0.111485 0.837988 0.848358
926 2 0.0685055 0.941755 0.884154
424 1 0.203432 0.828704 0.795976
449 1 0.376046 0.753835 0.811585
902 2 0.264792 0.894226 0.853672
903 2 0.404011 0.957639 0.877013
923 2 0.470912 0.980142 0.811438
444 1 0.567855 0.831144 0.824141
948 2 0.40832 0.871475 0.844404
446 1 0.551133 0.974374 0.844014
421 1 0.827276 0.840009 0.832507
925 2 0.70148 0.915524 0.843978
941 2 0.682158 0.0740029 0.848319
906 2 0.110902 0.273028 0.893989
457 1 0.109196 0.167082 0.931373
451 1 0.011209 0.045737 0.948238
453 1 0.220017 0.989637 0.885109
907 2 0.21775 0.168694 0.901401
478 1 0.351923 0.0359875 0.920934
974 2 0.569095 0.0441676 0.874043
928 2 0.536261 0.231676 0.863665
459 1 0.648723 0.162712 0.907269
905 2 0.991352 0.161184 0.906117
481 1 0.840523 0.175501 0.920717
950 2 0.956441 0.062668 0.878546
975 2 0.764413 0.0510989 0.889763
901 2 0.261871 0.337599 0.882203
408 1 0.0797808 0.425282 0.847706
461 1 0.0697625 0.425772 0.918044
438 1 0.150656 0.463623 0.883259
433 1 0.372897 0.231478 0.895112
913 2 0.402151 0.348632 0.869179
958 2 0.360374 0.381879 0.917016
460 1 0.799984 0.324046 0.878675
464 1 0.534474 0.190881 0.959537