ITEM: TIMESTEP
12980
ITEM: NUMBER OF ATOMS
1000
ITEM: BOX BOUNDS pp pp pp
0.0000000000000000e+00 6.2996052494743662e+00
0.0000000000000000e+00 6.2996052494743662e+00
0.0000000000000000e+00 2.5198420997897465e+01
ITEM: ATOMS id type xs ys zs
46 1 0.986966 0.0978046 0.0190298
13 1 0.0798897 0.156249 0.0454587
16 1 0.0518092 0.241929 0.985929
528 2 0.157176 0.0670949 0.075696
918 2 0.10049 0.0228797 0.0340043
28 1 0.247473 0.20413 0.0331097
498 1 0.327971 0.0664546 0.058603
8 1 0.305013 0.246116 0.998857
17 1 0.626227 0.1671 0.0248276
529 2 0.799398 0.272587 0.0358512
571 2 0.433589 0.159248 0.021342
486 1 0.0413752 0.150005 0.0985118
507 2 0.851116 0.97828 0.0564259
27 1 0.859614 0.112039 0.0341354
71 1 0.997252 0.0704779 0.0683215
510 2 0.0538746 0.368988 0.019606
532 2 0.0353415 0.544741 0.0281566
977 2 0.126215 0.268098 0.0870764
85 1 0.149591 0.451865 0.0392378
581 2 0.242466 0.304506 0.0583619
957 2 0.0886548 0.415333 0.0700821
454 1 0.296706 0.37119 0.0243911
489 1 0.197295 0.582023 0.0189961
512 2 0.464113 0.339361 0.0389391
573 2 0.445958 0.315535 0.990542
999 2 0.661456 0.60849 0.981663
982 2 0.892219 0.201399 0.0673643
552 2 0.638903 0.522598 0.0401956
58 1 0.36454 0.460778 0.996221
544 2 0.0155553 0.284906 0.0570105
485 1 0.926764 0.390632 0.0430251
73 1 0.760467 0.42856 0.0431479
987 2 0.0610551 0.658937 0.00084635
86 1 0.865643 0.546444 0.0455859
49 1 0.904793 0.649559 0.0162277
63 1 0.382407 0.519293 0.0304096
963 2 0.273615 0.623006 0.055231
514 2 0.276693 0.788492 0.0531689
506 2 0.639233 0.751261 0.998755
33 1 0.674747 0.705339 0.0446123
947 2 0.409476 0.859812 0.0510868
31 1 0.697947 0.910642 0.994244
989 2 0.747925 0.611128 0.0183142
961 2 0.975918 0.624212 0.959435
545 2 0.788602 0.780305 0.0170749
520 2 0.744606 0.600234 0.0672698
37 1 0.987844 0.618184 0.0685426
525 2 0.123912 0.828294 0.0301941
524 2 0.994676 0.73573 0.0406712
549 2 0.97059 0.883511 0.0347312
18 1 0.310645 0.888486 0.0248454
9 1 0.35979 0.675553 0.0263383
12 1 0.449417 0.00924948 0.0303772
3 1 0.317568 0.0320297 0.0148924
95 1 0.557793 0.863623 0.0198208
29 1 0.557654 0.0234052 0.00546025
548 2 0.52765 0.919042 0.0746778
21 1 0.824477 0.820664 0.0507977
468 1 0.777391 0.934058 0.0256238
560 2 0.322043 0.0893129 0.0980528
1 1 0.98148 0.228695 0.129405
57 1 0.18863 0.177698 0.111109
82 1 0.291449 0.269224 0.130914
48 1 0.49361 0.0844191 0.0602003
52 1 0.300669 0.239195 0.0881137
92 1 0.460301 0.176745 0.0951035
565 2 0.73247 0.0976254 0.110268
516 2 0.620251 0.98885 0.0439968
96 1 0.603896 0.079795 0.0874991
100 1 0.892882 0.117383 0.104823
598 2 0.752711 0.0800067 0.0672174
41 1 0.793124 0.293064 0.0982618
11 1 0.151375 0.333749 0.119988
985 2 0.224589 0.407898 0.0926814
590 2 0.854447 0.454905 0.124936
526 2 0.40188 0.206678 0.0583722
7 1 0.291941 0.474886 0.063123
527 2 0.397834 0.353003 0.0777495
600 2 0.577024 0.369436 0.00833747
503 2 0.545967 0.269162 0.065725
521 2 0.703406 0.256877 0.0702213
79 1 0.616751 0.409618 0.07775
558 2 0.488983 0.476368 0.0551295
77 1 0.884998 0.521317 0.0836524
35 1 0.770797 0.409607 0.0787494
981 2 0.919444 0.361382 0.096421
533 2 0.71776 0.446404 0.112365
551 2 0.310679 0.629513 0.116993
65 1 0.144367 0.5464 0.0852922
517 2 0.0704661 0.661248 0.107708
70 1 0.0900536 0.759204 0.0776434
523 2 0.213874 0.702457 0.0876577
547 2 0.514428 0.568259 0.111051
56 1 0.416281 0.622199 0.0673875
537 2 0.441821 0.70789 0.100479
998 2 0.528612 0.7576 0.0549426
519 2 0.636673 0.589204 0.127528
511 2 0.630282 0.36271 0.041041
15 1 0.593133 0.55452 0.078946
50 1 0.756941 0.54404 0.148617
64 1 0.761921 0.606315 0.10389
40 1 0.88534 0.668243 0.0924202
997 2 0.131751 0.649312 0.0517838
967 2 0.0667656 0.925202 0.0655911
546 2 0.12435 0.994556 0.115308
23 1 0.217383 0.930175 0.0568726
559 2 0.481453 0.0163064 0.103716
577 2 0.486865 0.853454 0.111986
597 2 0.307259 0.791443 0.115736
971 2 0.616105 0.716954 0.0857229
543 2 0.565894 0.0187566 0.132688
513 2 0.633914 0.918289 0.103759
587 2 0.750582 0.737766 0.123703
534 2 0.679547 0.857527 0.0617826
39 1 0.930318 0.817841 0.0757275
502 2 0.755773 0.755196 0.085072
575 2 0.793024 0.926344 0.0899299
566 2 0.948507 0.163796 0.171771
101 1 0.995517 0.317273 0.171127
583 2 0.234281 0.0450309 0.13801
93 1 0.0940988 0.218028 0.154157
589 2 0.372885 0.142316 0.136402
599 2 0.574942 0.191548 0.141184
99 1 0.68121 0.183785 0.17241
34 1 0.60505 0.273369 0.103034
80 1 0.84209 0.308803 0.16601
554 2 0.706177 0.0539636 0.153429
26 1 0.830905 0.19575 0.193632
576 2 0.841086 0.129349 0.143939
83 1 0.00362477 0.374062 0.136575
125 1 0.0399058 0.473459 0.109161
531 2 0.344832 0.417374 0.206488
538 2 0.384769 0.510789 0.102376
561 2 0.348481 0.405508 0.135531
78 1 0.438189 0.305762 0.11314
62 1 0.535388 0.417033 0.128042
76 1 0.46883 0.294492 0.154942
604 2 0.668356 0.349735 0.153043
557 2 0.550366 0.428056 0.165664
671 2 0.579482 0.304416 0.187366
89 1 0.720347 0.22313 0.134668
582 2 0.957105 0.573775 0.190948
564 2 0.836357 0.456188 0.168207
553 2 0.99871 0.709388 0.137077
91 1 0.168443 0.744601 0.130202
122 1 0.129679 0.791583 0.165022
38 1 0.408339 0.72551 0.141309
141 1 0.277789 0.521371 0.157371
97 1 0.272298 0.723187 0.16233
509 2 0.430827 0.584843 0.149475
116 1 0.383824 0.634852 0.183833
14 1 0.606069 0.609677 0.162975
66 1 0.69748 0.728212 0.182588
139 1 0.549611 0.733481 0.135264
10 1 0.876718 0.81403 0.115352
94 1 0.763182 0.594134 0.192367
594 2 0.949309 0.575986 0.120625
111 1 0.982274 0.545447 0.15493
615 2 0.874802 0.688956 0.155508
44 1 0.0256505 0.0774528 0.134196
550 2 0.998342 0.898243 0.120136
42 1 0.938464 0.994677 0.0957309
541 2 0.961046 0.999831 0.16662
542 2 0.199547 0.883681 0.10244
555 2 0.36154 0.889791 0.0840754
53 1 0.270023 0.88321 0.148442
88 1 0.41834 0.911687 0.144038
536 2 0.365459 0.0409204 0.164738
59 1 0.668978 0.901294 0.140464
90 1 0.545156 0.986832 0.166599
539 2 0.315937 0.961363 0.115573
98 1 0.978528 0.841837 0.158284
60 1 0.840414 0.948687 0.141366
540 2 0.788721 0.819021 0.158367
610 2 0.119159 0.304385 0.234227
118 1 0.103745 0.0903513 0.182813
107 1 0.155477 0.37427 0.162775
128 1 0.114982 0.984501 0.213409
638 2 0.137923 0.269265 0.192919
74 1 0.252518 0.179303 0.158372
112 1 0.498265 0.148811 0.180057
110 1 0.385444 0.0689297 0.21301
603 2 0.247025 0.0205891 0.230156
157 1 0.627909 0.0228857 0.199971
55 1 0.716223 0.110146 0.219402
105 1 0.811141 0.0459329 0.180619
109 1 0.00498271 0.187143 0.207644
605 2 0.867555 0.0954722 0.235504
595 2 0.161765 0.483112 0.13409
54 1 0.0360974 0.465507 0.182308
535 2 0.99476 0.443442 0.221244
651 2 0.21537 0.415745 0.234307
556 2 0.317321 0.33105 0.172656
586 2 0.418842 0.315662 0.229905
611 2 0.279414 0.276267 0.214573
84 1 0.426704 0.267342 0.196293
608 2 0.455375 0.55126 0.208679
607 2 0.582538 0.18508 0.210841
580 2 0.913725 0.316758 0.210238
150 1 0.676942 0.475731 0.186849
81 1 0.849019 0.483979 0.212539
585 2 0.731224 0.290793 0.20626
622 2 0.120551 0.608458 0.205825
606 2 0.310224 0.563965 0.2137
632 2 0.10216 0.623967 0.158977
87 1 0.191628 0.496827 0.191709
591 2 0.320517 0.764707 0.238835
72 1 0.238831 0.732878 0.203691
570 2 0.438216 0.731734 0.215542
635 2 0.539642 0.431236 0.202727
563 2 0.851135 0.730979 0.202515
593 2 0.619019 0.630334 0.208791
104 1 0.0201213 0.721739 0.188657
108 1 0.894073 0.861479 0.188989
665 2 0.867242 0.688225 0.24111
596 2 0.0464318 0.900398 0.187546
642 2 0.923034 0.839246 0.230759
578 2 0.0937887 0.937346 0.14947
616 2 0.146683 0.847202 0.206266
127 1 0.232397 0.978125 0.182288
613 2 0.325896 0.915389 0.213622
562 2 0.373632 0.842985 0.182206
134 1 0.476138 0.917808 0.241842
69 1 0.470532 0.934246 0.2013
68 1 0.569387 0.827772 0.162882
572 2 0.657129 0.937335 0.235342
144 1 0.506674 0.718118 0.182115
149 1 0.587384 0.78794 0.224924
117 1 0.80619 0.910089 0.216575
530 2 0.662732 0.874998 0.193873
648 2 0.890411 0.818585 0.271077
567 2 0.0707313 0.785037 0.259758
113 1 0.746455 0.792376 0.241053
602 2 0.360514 0.134547 0.284446
172 1 0.00851088 0.0705595 0.290538
102 1 0.93745 0.999713 0.208733
568 2 0.190617 0.854091 0.244311
176 1 0.134126 0.983995 0.256407
137 1 0.289489 0.370628 0.266033
124 1 0.376147 0.053162 0.252582
626 2 0.24993 0.128827 0.198336
612 2 0.473589 0.239841 0.278123
163 1 0.378372 0.0454039 0.316144
579 2 0.551329 0.0622411 0.242965
653 2 0.614706 0.231034 0.270353
151 1 0.717636 0.0782429 0.26043
623 2 0.735487 0.231384 0.244647
138 1 0.446103 0.176319 0.240689
667 2 0.0145961 0.0792942 0.248834
614 2 0.924716 0.959038 0.256621
618 2 0.110809 0.448081 0.264939
569 2 0.129179 0.135328 0.224911
145 1 0.230808 0.2208 0.283197
135 1 0.968057 0.37984 0.26017
119 1 0.0748773 0.196061 0.279998
140 1 0.265933 0.178723 0.246967
636 2 0.239051 0.516528 0.264544
675 2 0.501764 0.368899 0.25954
114 1 0.352312 0.311436 0.296789
637 2 0.534007 0.364904 0.301534
670 2 0.625606 0.358017 0.238488
123 1 0.669789 0.44782 0.27178
601 2 0.95748 0.249953 0.241729
652 2 0.85687 0.141585 0.270084
634 2 0.887679 0.513264 0.247943
129 1 0.832113 0.402217 0.294844
161 1 0.809743 0.372464 0.253376
620 2 0.124304 0.638537 0.273256
609 2 0.0232679 0.589701 0.245397
142 1 0.411677 0.609657 0.246353
624 2 0.35237 0.744863 0.278995
617 2 0.375042 0.445664 0.243666
146 1 0.531094 0.512306 0.282427
164 1 0.496293 0.67294 0.287899
67 1 0.549823 0.52754 0.237307
592 2 0.719136 0.492135 0.234107
115 1 0.566878 0.65144 0.25586
630 2 0.719421 0.581873 0.264543
169 1 0.0145085 0.722734 0.225295
629 2 0.934739 0.510497 0.283985
130 1 0.138706 0.340847 0.295215
639 2 0.814245 0.614776 0.300182
120 1 0.212616 0.636947 0.2413
121 1 0.114766 0.918065 0.292061
672 2 0.318173 0.904174 0.268805
247 1 0.194247 0.782809 0.282967
103 1 0.459757 0.775665 0.251979
153 1 0.446836 0.95062 0.290587
696 2 0.426808 0.789961 0.311521
131 1 0.600293 0.949508 0.269962
647 2 0.628651 0.814374 0.268768
625 2 0.770838 0.941297 0.263311
160 1 0.7659 0.720037 0.274927
588 2 0.955824 0.931697 0.294448
621 2 0.976524 0.663302 0.276755
175 1 0.0362218 0.95592 0.325302
646 2 0.276915 0.162921 0.316266
680 2 0.153707 0.0490115 0.317089
185 1 0.120886 0.213946 0.318351
197 1 0.438353 0.236688 0.320948
183 1 0.523286 0.0989979 0.284028
706 2 0.415095 0.00901099 0.354499
640 2 0.589333 0.195455 0.310246
627 2 0.71801 0.147973 0.328244
126 1 0.741946 0.210418 0.294528
662 2 0.817262 0.296291 0.324615
180 1 0.957093 0.283291 0.296505
679 2 0.890151 0.12573 0.322104
166 1 0.264737 0.457745 0.311892
106 1 0.199488 0.221519 0.363144
156 1 0.0881202 0.498131 0.344741
661 2 0.2387 0.501542 0.346391
201 1 0.345075 0.178574 0.349658
650 2 0.582955 0.317575 0.335594
167 1 0.430517 0.374441 0.352632
158 1 0.664077 0.506617 0.305348
584 2 0.960217 0.358101 0.335438
687 2 0.905994 0.238831 0.355832
699 2 0.681784 0.355447 0.305791
666 2 0.842228 0.584015 0.353939
641 2 0.150753 0.542946 0.305204
191 1 0.948069 0.66278 0.321232
207 1 0.117658 0.664815 0.330936
720 2 0.295366 0.715532 0.342765
168 1 0.422171 0.448163 0.319652
697 2 0.32824 0.581761 0.290506
194 1 0.796684 0.478507 0.328072
619 2 0.637751 0.722046 0.296367
148 1 0.602606 0.502739 0.342352
170 1 0.720332 0.61399 0.327167
649 2 0.953823 0.499035 0.323472
700 2 0.988327 0.799318 0.347924
231 1 0.129966 0.844101 0.332028
147 1 0.566669 0.883052 0.31092
177 1 0.255706 0.0117888 0.290757
691 2 0.248678 0.69082 0.308865
673 2 0.518131 0.644048 0.326865
702 2 0.277524 0.883555 0.350033
178 1 0.285872 0.853922 0.312788
658 2 0.543416 0.048681 0.330067
628 2 0.834388 0.0218593 0.297246
154 1 0.74472 0.862563 0.297424
190 1 0.66668 0.0541956 0.296908
195 1 0.623442 0.66765 0.36031
152 1 0.022529 0.793743 0.295545
155 1 0.87247 0.786886 0.307197
655 2 0.746856 0.962991 0.324505
674 2 0.856433 0.731054 0.347026
182 1 0.276282 0.0344596 0.342638
677 2 0.126076 0.0885882 0.385044
188 1 0.266574 0.0176405 0.384914
136 1 0.401142 0.270966 0.379444
238 1 0.549643 0.990219 0.374492
736 2 0.28519 0.250432 0.404293
213 1 0.393038 0.0865129 0.388651
162 1 0.44949 0.295038 0.417837
678 2 0.504868 0.149043 0.358544
187 1 0.53457 0.118313 0.4031
698 2 0.677257 0.0776854 0.385148
686 2 0.589024 0.264194 0.393794
692 2 0.450393 0.463716 0.403909
133 1 0.664709 0.229892 0.356722
159 1 0.826521 0.0417491 0.354791
179 1 0.092975 0.0949954 0.349737
657 2 0.299131 0.34042 0.334641
656 2 0.118904 0.352087 0.339731
220 1 0.153584 0.408469 0.375376
186 1 0.0454013 0.462676 0.42671
710 2 0.0896875 0.311996 0.401123
669 2 0.35094 0.396075 0.435858
132 1 0.297287 0.400852 0.377884
688 2 0.181998 0.532719 0.401628
143 1 0.552544 0.420366 0.371256
643 2 0.704749 0.385178 0.394504
718 2 0.567009 0.238341 0.43606
217 1 0.716697 0.388563 0.356083
244 1 0.938572 0.324478 0.409821
664 2 0.842752 0.333783 0.377741
165 1 0.987375 0.214843 0.388008
693 2 0.987973 0.469603 0.376363
199 1 0.113206 0.607751 0.37581
205 1 0.0850388 0.732928 0.40179
645 2 0.308819 0.566877 0.375689
171 1 0.365239 0.581546 0.334597
631 2 0.491641 0.581298 0.365695
221 1 0.264136 0.712801 0.378125
725 2 0.567426 0.827573 0.384867
198 1 0.681402 0.713761 0.392575
173 1 0.555512 0.671313 0.409743
676 2 0.70177 0.770641 0.326663
223 1 0.461146 0.739343 0.368756
723 2 0.652366 0.550214 0.4072
196 1 0.970381 0.652873 0.371821
216 1 0.855082 0.461084 0.391008
644 2 0.711809 0.547062 0.370336
275 1 0.91344 0.483127 0.429589
737 2 0.83157 0.686671 0.38451
246 1 0.90761 0.677255 0.440382
225 1 0.138579 0.772485 0.366646
682 2 0.141478 0.967554 0.356492
660 2 0.0550453 0.940099 0.395143
236 1 0.130845 0.0170396 0.417837
202 1 0.435315 0.846861 0.34444
232 1 0.380092 0.882744 0.386397
212 1 0.223452 0.85419 0.38967
174 1 0.658486 0.821019 0.42565
724 2 0.588641 0.842414 0.348222
719 2 0.662879 0.022269 0.349311
690 2 0.965603 0.984908 0.364994
654 2 0.882173 0.907665 0.338728
200 1 0.956937 0.828541 0.390338
211 1 0.169517 0.159978 0.424562
181 1 0.0143025 0.121599 0.418953
265 1 0.304983 0.197066 0.454701
735 2 0.221178 0.99293 0.462202
235 1 0.359235 0.101508 0.42755
233 1 0.526327 0.0698415 0.443348
733 2 0.337698 0.941517 0.492453
633 2 0.649333 0.969775 0.410096
684 2 0.742668 0.048454 0.462874
716 2 0.677147 0.129522 0.432143
705 2 0.830139 0.106865 0.419004
189 1 0.850469 0.132948 0.38005
715 2 0.901046 0.0825566 0.454129
184 1 0.0834913 0.294119 0.436533
192 1 0.0255761 0.410528 0.461207
296 1 0.170215 0.565806 0.436731
261 1 0.215801 0.366777 0.419569
242 1 0.313844 0.565087 0.419409
234 1 0.448282 0.229949 0.467847
239 1 0.578437 0.376373 0.46007
689 2 0.702179 0.333211 0.436224
721 2 0.656468 0.491115 0.486272
659 2 0.829031 0.257155 0.434808
240 1 0.730316 0.494358 0.438597
709 2 0.742193 0.236708 0.401797
215 1 0.761555 0.222028 0.466252
767 2 0.979089 0.226048 0.459304
203 1 0.00787024 0.581634 0.403382
745 2 0.0917654 0.701706 0.444074
222 1 0.010066 0.576267 0.456897
741 2 0.286235 0.799216 0.419277
237 1 0.405434 0.660816 0.3971
722 2 0.54004 0.730097 0.450149
712 2 0.218202 0.676431 0.415045
779 2 0.471275 0.565891 0.435387
713 2 0.386301 0.691678 0.438725
193 1 0.587265 0.431101 0.422262
204 1 0.633004 0.593981 0.450047
663 2 0.785727 0.596079 0.464874
229 1 0.732 0.674322 0.426799
206 1 0.806592 0.788334 0.441346
681 2 0.963759 0.953017 0.42915
755 2 0.991297 0.822669 0.453465
746 2 0.127517 0.877697 0.438247
251 1 0.0419873 0.0176169 0.458079
278 1 0.241481 0.660902 0.479264
214 1 0.442244 0.931977 0.456674
257 1 0.296476 0.949735 0.430528
707 2 0.446033 0.805093 0.419334
708 2 0.274153 0.822682 0.460443
208 1 0.443666 0.967703 0.417076
683 2 0.604491 0.93474 0.446358
228 1 0.690254 0.73738 0.474758
727 2 0.553264 0.85411 0.480436
717 2 0.79438 0.93764 0.424788
703 2 0.714171 0.886064 0.375033
209 1 0.808825 0.808663 0.405371
749 2 0.80453 0.982312 0.390083
321 1 0.145869 0.151788 0.463148
284 1 0.252081 0.0985821 0.514729
290 1 0.97162 0.980778 0.527095
753 2 0.425134 0.089205 0.475172
264 1 0.599958 0.998136 0.484854
731 2 0.447215 0.994153 0.524598
742 2 0.40959 0.190847 0.503713
734 2 0.621328 0.144423 0.471902
778 2 0.554524 0.253472 0.549882
804 2 0.67863 0.19169 0.509164
250 1 0.883384 0.987691 0.496682
210 1 0.0738843 0.0845675 0.494834
260 1 0.828534 0.298653 0.506624
308 1 0.822656 0.124535 0.516976
763 2 0.154412 0.302499 0.472387
711 2 0.929077 0.167898 0.493946
272 1 0.115126 0.356214 0.505847
791 2 0.113317 0.209276 0.521559
714 2 0.449676 0.457398 0.461142
732 2 0.188489 0.435794 0.451532
747 2 0.336192 0.341034 0.472987
738 2 0.562888 0.294244 0.493676
269 1 0.540201 0.446209 0.502887
739 2 0.721085 0.367299 0.480771
685 2 0.869988 0.365928 0.45911
230 1 0.882401 0.514833 0.53075
765 2 0.938519 0.339888 0.538764
740 2 0.973267 0.314395 0.500236
695 2 0.230824 0.46857 0.499571
762 2 0.0345604 0.532055 0.492747
267 1 0.297025 0.475951 0.535689
766 2 0.22643 0.631184 0.51896
701 2 0.998066 0.712223 0.48754
754 2 0.00925427 0.626472 0.521724
792 2 0.311627 0.540899 0.459594
218 1 0.521033 0.602325 0.476606
227 1 0.378213 0.650163 0.50224
249 1 0.39454 0.494366 0.494697
744 2 0.726418 0.516039 0.5248
694 2 0.733882 0.640014 0.503198
748 2 0.565352 0.599741 0.510074
300 1 0.570763 0.748165 0.507911
668 2 0.807538 0.774944 0.511988
262 1 0.887184 0.493689 0.476844
245 1 0.80773 0.60496 0.556293
314 1 0.87891 0.632881 0.498248
726 2 0.118535 0.815122 0.474162
793 2 0.151408 0.765776 0.507698
255 1 0.445874 0.7421 0.476949
752 2 0.298582 0.783868 0.501036
729 2 0.730977 0.998781 0.512674
279 1 0.571324 0.872046 0.54115
772 2 0.736426 0.91219 0.48375
774 2 0.867582 0.783556 0.476741
224 1 0.871621 0.931072 0.460054
243 1 0.840945 0.912302 0.526577
799 2 0.00659535 0.8865 0.490872
770 2 0.981582 0.806141 0.521693
704 2 0.67216 0.864189 0.512898
256 1 0.163546 0.888441 0.528661
757 2 0.281193 0.28253 0.509386
802 2 0.17645 0.0529282 0.576196
781 2 0.201447 0.174228 0.54874
287 1 0.295655 0.971799 0.534352
310 1 0.324626 0.117187 0.583043
809 2 0.498614 0.135743 0.576319
289 1 0.455314 0.142244 0.537945
277 1 0.70974 0.0556993 0.590103
824 2 0.590476 0.0218905 0.533932
309 1 0.554467 0.110284 0.502413
759 2 0.687911 0.133143 0.547288
294 1 0.993215 0.178483 0.544017
789 2 0.818163 0.0267881 0.551884
280 1 0.124102 0.0377249 0.529601
281 1 0.996651 0.0183191 0.565865
788 2 0.204018 0.217219 0.584957
298 1 0.2681 0.346945 0.582777
286 1 0.0552063 0.30339 0.560891
295 1 0.201144 0.340007 0.540185
315 1 0.134617 0.485502 0.53442
259 1 0.429165 0.350475 0.521477
728 2 0.341162 0.243679 0.545244
764 2 0.423683 0.270116 0.577777
285 1 0.542466 0.402076 0.542948
263 1 0.377693 0.407596 0.564621
219 1 0.689579 0.354221 0.533805
761 2 0.820062 0.234855 0.542856
270 1 0.706519 0.285357 0.56875
794 2 0.561654 0.329761 0.581929
845 2 0.61647 0.445496 0.603306
790 2 0.0147176 0.481749 0.554955
299 1 0.253379 0.61131 0.561214
797 2 0.101364 0.597664 0.558081
775 2 0.348006 0.73178 0.5659
293 1 0.458369 0.416212 0.603521
769 2 0.442485 0.54099 0.578519
366 1 0.594773 0.54169 0.550703
254 1 0.647645 0.681292 0.541324
288 1 0.489499 0.686468 0.579408
273 1 0.763723 0.739733 0.578933
274 1 0.678372 0.425835 0.568253
241 1 0.64314 0.590261 0.584708
297 1 0.825843 0.936987 0.585852
350 1 0.608152 0.782923 0.572848
780 2 0.16551 0.962731 0.496692
751 2 0.164132 0.750564 0.548701
798 2 0.340573 0.813113 0.537038
796 2 0.245806 0.898231 0.565798
266 1 0.453274 0.847021 0.509342
743 2 0.368538 0.818254 0.59612
258 1 0.444019 0.556918 0.539818
348 1 0.381147 0.0003298 0.568282
823 2 0.726324 0.830311 0.551075
322 1 0.456599 0.69683 0.532409
282 1 0.684196 0.954549 0.563936
777 2 0.474128 0.883908 0.56806
306 1 0.85664 0.743524 0.54881
730 2 0.959833 0.883137 0.564163
785 2 0.00649839 0.725127 0.550787
302 1 0.0640455 0.191963 0.587265
771 2 0.247317 0.0991173 0.619918
760 2 0.29955 0.961607 0.604282
372 1 0.406342 0.0510575 0.617842
374 1 0.659605 0.090107 0.629829
301 1 0.779344 0.186145 0.641359
311 1 0.807763 0.216101 0.603426
784 2 0.886185 0.131088 0.578077
776 2 0.82923 0.352631 0.579653
305 1 0.808127 0.256527 0.676416
291 1 0.070744 0.310717 0.610249
349 1 0.171184 0.46766 0.573455
292 1 0.292962 0.385019 0.622844
782 2 0.205445 0.259324 0.633133
248 1 0.475084 0.321752 0.633077
832 2 0.355449 0.237552 0.61369
268 1 0.647542 0.202831 0.593917
834 2 0.343586 0.283127 0.654109
342 1 0.521206 0.360324 0.667211
320 1 0.81984 0.439558 0.635033
335 1 0.646528 0.316172 0.641759
319 1 0.509714 0.170797 0.618047
817 2 0.931889 0.331527 0.637672
313 1 0.86667 0.529858 0.592067
331 1 0.991115 0.397764 0.587831
816 2 0.773648 0.487538 0.667645
811 2 0.0708854 0.574399 0.595305
341 1 0.270403 0.529991 0.593712
814 2 0.195817 0.631027 0.621081
357 1 0.139452 0.45751 0.614116
328 1 0.433956 0.552719 0.624201
253 1 0.348095 0.666763 0.610876
226 1 0.569224 0.477445 0.639695
750 2 0.810263 0.701039 0.6147
768 2 0.5696 0.635294 0.619372
303 1 0.730048 0.582932 0.624442
325 1 0.677769 0.758892 0.622189
795 2 0.906675 0.766308 0.585913
825 2 0.958255 0.681025 0.628547
840 2 0.905749 0.561691 0.648632
850 2 0.0756786 0.0565939 0.603405
800 2 0.0935474 0.887874 0.584342
822 2 0.0420821 0.791057 0.612601
368 1 0.168854 0.7892 0.633822
252 1 0.161156 0.950851 0.62863
756 2 0.309848 0.9979 0.649141
283 1 0.215768 0.744962 0.593581
326 1 0.478894 0.910985 0.62391
842 2 0.311843 0.862227 0.633754
783 2 0.671793 0.889276 0.599264
758 2 0.556706 0.0242767 0.607373
818 2 0.501282 0.773508 0.607476
324 1 0.638932 0.926112 0.634004
803 2 0.478742 0.0517532 0.656666
808 2 0.848808 0.0549083 0.618581
843 2 0.782405 0.877642 0.622966
865 2 0.97892 0.950544 0.608024
849 2 0.821885 0.971189 0.651203
355 1 0.921108 0.847862 0.638309
347 1 0.181896 0.0650942 0.661521
332 1 0.897432 0.144406 0.658319
829 2 0.0516348 0.143257 0.688193
807 2 0.081859 0.183049 0.638559
787 2 0.33728 0.136163 0.656884
833 2 0.207081 0.116412 0.701078
333 1 0.48648 0.183984 0.676091
827 2 0.66424 0.0611233 0.707253
304 1 0.705381 0.0309129 0.669555
330 1 0.478347 0.0811557 0.714958
376 1 0.654388 0.160483 0.674413
390 1 0.623937 0.228654 0.710139
810 2 0.9472 0.180561 0.61632
846 2 0.819638 0.100527 0.690699
377 1 0.979455 0.315571 0.674573
812 2 0.238592 0.378075 0.6664
861 2 0.102265 0.378387 0.649034
416 1 0.134522 0.256496 0.671224
424 1 0.139048 0.360629 0.699195
323 1 0.26671 0.245498 0.687779
338 1 0.379368 0.349916 0.691144
851 2 0.273459 0.4681 0.700541
365 1 0.687287 0.348889 0.683989
364 1 0.457589 0.480022 0.696423
339 1 0.533132 0.351555 0.721127
773 2 0.621798 0.51287 0.676286
871 2 0.853454 0.332858 0.719528
801 2 0.237059 0.528544 0.64901
387 1 0.139232 0.48897 0.677338
891 2 0.0690777 0.555569 0.637508
317 1 0.47186 0.755368 0.644295
862 2 0.406498 0.470331 0.655579
900 2 0.325116 0.607987 0.675588
847 2 0.506101 0.608562 0.6549
340 1 0.683965 0.620317 0.697438
343 1 0.585038 0.791982 0.662385
813 2 0.678591 0.667076 0.65719
848 2 0.0519299 0.64611 0.683809
838 2 0.868742 0.589712 0.691199
839 2 0.858812 0.721275 0.666436
860 2 0.036505 0.750556 0.658298
271 1 0.999041 0.0111653 0.640533
867 2 0.297068 0.823623 0.673134
821 2 0.104555 0.886991 0.659557
815 2 0.239437 0.692836 0.654139
855 2 0.967729 0.781349 0.69162
396 1 0.0847515 0.998283 0.687937
820 2 0.23092 0.969024 0.691515
276 1 0.567417 0.955076 0.686414
346 1 0.388377 0.0205092 0.690724
874 2 0.353574 0.87069 0.704728
826 2 0.763605 0.82646 0.662084
358 1 0.715411 0.90397 0.694625
819 2 0.436305 0.884282 0.668949
423 1 0.76705 0.769353 0.705036
864 2 0.951962 0.956158 0.67698
805 2 0.167881 0.920971 0.733596
881 2 0.0798043 0.0190144 0.752834
830 2 0.02242 0.177107 0.747943
786 2 0.233971 0.0380095 0.75559
854 2 0.464241 0.149266 0.765448
353 1 0.38124 0.202686 0.714299
835 2 0.201458 0.365143 0.73356
329 1 0.604809 0.279332 0.754198
869 2 0.767956 0.984377 0.731605
853 2 0.759357 0.180272 0.723926
352 1 0.977007 0.0642568 0.721349
863 2 0.038733 0.252295 0.712306
384 1 0.0538706 0.890069 0.710586
879 2 0.879809 0.116357 0.755429
857 2 0.209878 0.528876 0.738267
876 2 0.193302 0.205375 0.728849
828 2 0.2194 0.418803 0.77425
361 1 0.010074 0.40531 0.716093
359 1 0.373829 0.39512 0.729278
307 1 0.302093 0.209139 0.756013
837 2 0.433545 0.287219 0.754321
844 2 0.657935 0.462418 0.70674
889 2 0.49768 0.472777 0.747348
414 1 0.650877 0.396884 0.782727
345 1 0.905972 0.440465 0.686548
859 2 0.706159 0.34553 0.729913
930 2 0.758177 0.282666 0.758538
385 1 0.931656 0.313215 0.751602
410 1 0.0491406 0.460095 0.753444
836 2 0.129952 0.772677 0.683946
386 1 0.101343 0.545181 0.71211
362 1 0.212034 0.651525 0.698841
312 1 0.0972053 0.636708 0.75666
408 1 0.33876 0.503775 0.757217
373 1 0.379623 0.583236 0.717634
367 1 0.28425 0.657963 0.749407
873 2 0.558936 0.675028 0.68608
360 1 0.54209 0.57323 0.723558
898 2 0.752096 0.612664 0.739066
375 1 0.60819 0.590234 0.754045
875 2 0.878171 0.676224 0.719979
370 1 0.813126 0.468387 0.723271
473 1 0.945559 0.541949 0.721446
841 2 0.238445 0.809527 0.715622
896 2 0.0983838 0.735586 0.72269
877 2 0.144296 0.893438 0.777387
872 2 0.362571 0.862687 0.742273
831 2 0.35647 0.722907 0.697431
318 1 0.471051 0.699591 0.729367
371 1 0.189195 0.766672 0.756316
886 2 0.463033 0.947486 0.762427
897 2 0.370127 0.745759 0.770122
316 1 0.355657 0.997156 0.733804
334 1 0.628677 0.905482 0.7324
430 1 0.510826 0.784374 0.759976
327 1 0.50224 0.829953 0.71052
909 2 0.621354 0.732034 0.722684
404 1 0.806192 0.82682 0.737341
398 1 0.969258 0.803068 0.736774
356 1 0.916997 0.963487 0.748868
379 1 0.89145 0.909035 0.708019
413 1 0.161308 0.14626 0.770835
412 1 0.477242 0.160663 0.826489
921 2 0.00723576 0.984912 0.821229
369 1 0.318894 0.0933093 0.790126
941 2 0.409 0.968132 0.823147
924 2 0.502529 0.00886092 0.797367
389 1 0.710819 0.0695748 0.761537
882 2 0.593791 0.117268 0.736939
382 1 0.481789 0.828026 0.820989
920 2 0.609373 0.993472 0.823913
892 2 0.725567 0.24989 0.798051
880 2 0.00194825 0.115133 0.796139
922 2 0.84075 0.101102 0.803055
990 2 0.935631 0.233498 0.78425
806 2 0.993959 0.42767 0.788479
393 1 0.0905878 0.318935 0.765944
910 2 0.291826 0.29874 0.838498
932 2 0.13945 0.252277 0.808719
363 1 0.271374 0.277555 0.788962
441 1 0.159101 0.487834 0.803555
443 1 0.375369 0.398885 0.781386
984 2 0.408089 0.312361 0.810843
460 1 0.818567 0.391625 0.791347
884 2 0.558134 0.278598 0.790849
391 1 0.623421 0.597795 0.792673
449 1 0.718091 0.459135 0.754803
381 1 0.731296 0.516626 0.803512
351 1 0.89827 0.43273 0.819937
964 2 0.894103 0.226138 0.821136
944 2 0.00404636 0.542738 0.830565
344 1 0.0537651 0.768423 0.776023
401 1 0.349077 0.748423 0.836906
912 2 0.0543284 0.576994 0.788418
400 1 0.466444 0.609645 0.767659
858 2 0.297391 0.591081 0.79269
917 2 0.454901 0.697768 0.808013
915 2 0.363424 0.60064 0.83324
887 2 0.526634 0.653416 0.838585
422 1 0.779302 0.630453 0.776883
337 1 0.61422 0.752944 0.790208
972 2 0.670605 0.755735 0.755254
893 2 0.886132 0.461972 0.761547
411 1 0.946736 0.62228 0.755755
856 2 0.92731 0.637702 0.807341
406 1 0.0160542 0.819647 0.813318
942 2 0.174691 0.831809 0.813775
392 1 0.183473 0.691485 0.790224
916 2 0.125665 0.993005 0.802123
911 2 0.0700453 0.691326 0.836367
852 2 0.300795 0.923429 0.776073
383 1 0.333813 0.85429 0.806596
895 2 0.615086 0.122383 0.791063
397 1 0.621643 0.910922 0.777431
354 1 0.78992 0.93073 0.778515
899 2 0.891043 0.797201 0.775469
885 2 0.870864 0.790849 0.818715
421 1 0.744944 0.933378 0.813268
378 1 0.26694 0.15519 0.823195
388 1 0.22264 0.133743 0.870617
457 1 0.138718 0.0514472 0.841915
476 1 0.252843 0.983526 0.81568
380 1 0.355554 0.0504721 0.851887
440 1 0.41164 0.266991 0.873222
403 1 0.262912 0.988279 0.90434
928 2 0.409612 0.121943 0.883279
429 1 0.632787 0.22039 0.830101
949 2 0.541488 0.139762 0.860565
399 1 0.725464 0.0350725 0.862966
425 1 0.857646 0.991806 0.835349
499 1 0.855907 0.147372 0.854227
976 2 0.724257 0.117732 0.826954
955 2 0.0114819 0.141803 0.832946
953 2 0.689332 0.20613 0.877151
431 1 0.0400507 0.377954 0.822901
878 2 0.137771 0.27329 0.85087
445 1 0.452079 0.427219 0.841891
418 1 0.244771 0.353229 0.877718
462 1 0.537808 0.301085 0.846705
405 1 0.572694 0.389556 0.81772
975 2 0.67463 0.377804 0.868248
935 2 0.47166 0.510498 0.80756
394 1 0.63882 0.568472 0.828532
417 1 0.749922 0.320254 0.831627
435 1 0.94998 0.283527 0.854002
913 2 0.18124 0.592961 0.832019
940 2 0.169053 0.431634 0.845969
937 2 0.27675 0.532011 0.858371
22 1 0.201787 0.744632 0.850477
943 2 0.427461 0.631462 0.865607
866 2 0.517426 0.773291 0.866624
901 2 0.297871 0.4398 0.818425
939 2 0.58683 0.519915 0.861452
933 2 0.790916 0.654364 0.832639
870 2 0.757047 0.750641 0.800716
931 2 0.746157 0.558923 0.871762
497 1 0.919867 0.717689 0.849313
883 2 0.753204 0.47067 0.839598
890 2 0.892178 0.574371 0.862187
336 1 0.761664 0.793214 0.854315
452 1 0.241379 0.945367 0.855343
968 2 0.112325 0.943262 0.87865
428 1 0.103388 0.901672 0.841856
434 1 0.375378 0.871818 0.85596
923 2 0.664543 0.701108 0.881197
919 2 0.641824 0.76946 0.833589
481 1 0.513176 0.966764 0.851678
868 2 0.638729 0.905005 0.870501
420 1 0.96118 0.942673 0.787642
451 1 0.853576 0.940188 0.874416
453 1 0.984136 0.0256394 0.858182
469 1 0.945311 0.875578 0.842696
995 2 0.117287 0.0977497 0.898408
996 2 0.960464 0.217472 0.906393
446 1 0.280293 0.13742 0.930213
954 2 0.0378995 0.197102 0.875882
934 2 0.317339 0.2285 0.900522
908 2 0.551953 0.227689 0.894118
493 1 0.455769 0.258898 0.923346
904 2 0.72825 0.0946123 0.900907
2 1 0.532888 0.109535 0.942145
427 1 0.557213 0.0686281 0.901907
484 1 0.671196 0.0714765 0.935375
888 2 0.845813 0.226672 0.881775
479 1 0.058104 0.175139 0.93888
75 1 0.791287 0.204955 0.921035
426 1 0.0852608 0.346823 0.879174
483 1 0.133146 0.253653 0.908448
25 1 0.116835 0.397108 0.919934
436 1 0.267452 0.3241 0.931198
974 2 0.397182 0.369863 0.901334
32 1 0.32481 0.337002 0.967733
960 2 0.525118 0.375923 0.880785
409 1 0.727334 0.326028 0.900892
965 2 0.586169 0.343696 0.920605
415 1 0.600348 0.560257 0.900602
966 2 0.829249 0.397662 0.870509
480 1 0.854662 0.399449 0.959071
983 2 0.955371 0.362597 0.898777
465 1 0.824091 0.395858 0.92225
407 1 0.0888766 0.631047 0.870592
402 1 0.973785 0.446605 0.8619
461 1 0.198521 0.498149 0.895623