ITEM: TIMESTEP
12780
ITEM: NUMBER OF ATOMS
1000
ITEM: BOX BOUNDS pp pp pp
0.0000000000000000e+00 6.2996052494743662e+00
0.0000000000000000e+00 6.2996052494743662e+00
0.0000000000000000e+00 2.5198420997897465e+01
ITEM: ATOMS id type xs ys zs
46 1 0.00355392 0.0755042 0.0124463
13 1 0.0904619 0.168113 0.0363977
16 1 0.0694047 0.238652 0.976858
528 2 0.202361 0.0929633 0.0600632
918 2 0.160374 0.997212 0.030283
28 1 0.247984 0.200176 0.0301675
498 1 0.349554 0.0770517 0.0486258
8 1 0.332454 0.222291 0.000589039
17 1 0.597909 0.192494 0.0461334
529 2 0.721705 0.266268 0.0328213
571 2 0.48009 0.180992 0.0196457
486 1 0.0343183 0.179329 0.0818207
507 2 0.843065 0.983514 0.0617829
27 1 0.802287 0.121106 0.0429364
71 1 0.96909 0.11155 0.049156
510 2 0.0156968 0.381903 0.0259174
532 2 0.0130879 0.553514 0.0233526
977 2 0.154938 0.265348 0.066998
85 1 0.195258 0.443882 0.0366726
581 2 0.27356 0.331325 0.0515002
957 2 0.064765 0.501784 0.0609269
454 1 0.323126 0.375963 0.00653801
489 1 0.282644 0.57275 0.0138275
512 2 0.455171 0.343175 0.0325887
573 2 0.464452 0.298402 0.992269
999 2 0.651193 0.550355 0.989418
982 2 0.851411 0.259315 0.0589295
552 2 0.618213 0.519007 0.0400679
58 1 0.4181 0.525351 0.998782
544 2 0.0184999 0.284709 0.0527485
485 1 0.904855 0.407413 0.0544802
73 1 0.751616 0.407057 0.0408077
987 2 0.0756474 0.691927 0.000217096
86 1 0.834731 0.54646 0.0471768
49 1 0.926736 0.648603 0.00602764
63 1 0.405035 0.546824 0.0370394
963 2 0.257401 0.633955 0.0468797
514 2 0.315841 0.792734 0.0574366
506 2 0.623032 0.736054 0.011472
33 1 0.667531 0.706985 0.0592275
947 2 0.452259 0.834912 0.0444429
31 1 0.708915 0.902397 0.990555
989 2 0.739873 0.649524 0.024186
961 2 0.941517 0.627538 0.966968
545 2 0.784554 0.797053 0.00791034
520 2 0.750614 0.595176 0.0740479
37 1 0.941081 0.648677 0.0606318
525 2 0.149449 0.801592 0.0506765
524 2 0.0170006 0.77953 0.0337918
549 2 0.972497 0.952591 0.0326474
18 1 0.274737 0.905779 0.022071
9 1 0.386482 0.701401 0.0308309
12 1 0.431464 0.975016 0.0327064
3 1 0.263002 0.0566395 0.00998211
95 1 0.625517 0.841433 0.0387089
29 1 0.56909 0.996387 0.0104413
548 2 0.550006 0.921503 0.0623948
21 1 0.829751 0.714137 0.0495559
468 1 0.763506 0.939862 0.0259623
560 2 0.293925 0.0733324 0.0901511
1 1 0.983013 0.229145 0.127929
57 1 0.202135 0.129992 0.121834
82 1 0.295778 0.258356 0.131096
48 1 0.492534 0.0812411 0.0591957
52 1 0.275997 0.231656 0.093447
92 1 0.494918 0.152498 0.104816
565 2 0.712899 0.0750929 0.114612
516 2 0.6411 0.0535462 0.0558853
96 1 0.629427 0.120589 0.0883298
100 1 0.933815 0.0971622 0.100178
598 2 0.788433 0.118374 0.0797784
41 1 0.862878 0.25385 0.101645
11 1 0.135249 0.258803 0.123075
985 2 0.203558 0.365567 0.0991523
590 2 0.873027 0.380391 0.120934
526 2 0.415497 0.220833 0.0561754
7 1 0.31479 0.475253 0.0621219
527 2 0.400104 0.344112 0.0773589
600 2 0.593873 0.373515 0.0196953
503 2 0.523719 0.255752 0.0781389
521 2 0.719245 0.257614 0.0824696
79 1 0.561977 0.421879 0.0950845
558 2 0.483445 0.464741 0.0603232
77 1 0.93562 0.514216 0.0840018
35 1 0.792914 0.389613 0.0867689
981 2 0.00161165 0.334519 0.0883901
533 2 0.688678 0.442143 0.110109
551 2 0.295616 0.645766 0.122128
65 1 0.202548 0.554211 0.0810149
517 2 0.0806264 0.639226 0.102329
70 1 0.0551715 0.778669 0.0801216
523 2 0.245163 0.704098 0.0894456
547 2 0.457239 0.557341 0.0980197
56 1 0.363931 0.61395 0.0708293
537 2 0.437486 0.725755 0.0955028
998 2 0.518007 0.683631 0.0570577
519 2 0.570898 0.602411 0.124861
511 2 0.615692 0.358893 0.0594589
15 1 0.594023 0.572393 0.0864744
50 1 0.68798 0.521688 0.14645
64 1 0.755302 0.597223 0.115913
40 1 0.92762 0.700122 0.0976246
997 2 0.0992306 0.649865 0.0512686
967 2 0.0739118 0.953471 0.0608759
546 2 0.141636 0.0419948 0.096098
23 1 0.297454 0.951175 0.0608902
559 2 0.443273 0.993384 0.0866239
577 2 0.46569 0.874769 0.111513
597 2 0.347071 0.809492 0.131839
971 2 0.577069 0.748343 0.100511
543 2 0.553556 0.0299148 0.118089
513 2 0.61731 0.923071 0.0954642
587 2 0.728661 0.730924 0.129639
534 2 0.705158 0.89611 0.0699775
39 1 0.938557 0.839391 0.0634457
502 2 0.771056 0.771859 0.0910413
575 2 0.797826 0.939777 0.0984592
566 2 0.953321 0.12751 0.169505
101 1 0.984865 0.304594 0.179932
583 2 0.229582 0.0416947 0.150379
93 1 0.0949615 0.201551 0.157488
589 2 0.413307 0.163061 0.138315
599 2 0.590682 0.183279 0.143786
99 1 0.724629 0.203172 0.163923
34 1 0.614808 0.284206 0.107945
80 1 0.853398 0.279388 0.153865
554 2 0.69947 0.0414474 0.155091
26 1 0.871122 0.220413 0.191815
576 2 0.88252 0.124934 0.136412
83 1 0.0234423 0.393889 0.137812
125 1 0.0513695 0.489574 0.110138
531 2 0.394693 0.428853 0.191681
538 2 0.323789 0.483398 0.0995406
561 2 0.354493 0.431103 0.138827
78 1 0.452544 0.293332 0.113667
62 1 0.505757 0.476751 0.130069
76 1 0.501135 0.319858 0.151633
604 2 0.631863 0.357945 0.140312
557 2 0.521615 0.437319 0.172945
671 2 0.58034 0.260469 0.18064
89 1 0.747556 0.229003 0.123627
582 2 0.914151 0.587998 0.191207
564 2 0.874743 0.439973 0.165585
553 2 0.0013539 0.694455 0.145797
91 1 0.16619 0.73633 0.132161
122 1 0.108111 0.763864 0.163855
38 1 0.473553 0.74705 0.151758
141 1 0.264722 0.541866 0.160446
97 1 0.274606 0.731348 0.157623
509 2 0.429276 0.592554 0.142298
116 1 0.394238 0.649473 0.177939
14 1 0.562567 0.581835 0.164632
66 1 0.667438 0.692751 0.170813
139 1 0.603639 0.795253 0.139989
10 1 0.874727 0.802855 0.121866
94 1 0.723486 0.561657 0.185988
594 2 0.898504 0.558019 0.120052
111 1 0.980584 0.541068 0.151553
615 2 0.831905 0.639421 0.148607
44 1 0.0570201 0.0736243 0.129513
550 2 0.0726263 0.8604 0.124606
42 1 0.97668 0.936635 0.0907371
541 2 0.96759 0.989121 0.16977
542 2 0.184527 0.883266 0.098258
555 2 0.34938 0.857989 0.0927213
53 1 0.285439 0.901094 0.158455
88 1 0.437138 0.890719 0.157263
536 2 0.352127 0.0193044 0.177135
59 1 0.709627 0.901923 0.128351
90 1 0.565188 0.00767382 0.153202
539 2 0.375385 0.986939 0.126958
98 1 0.92645 0.827186 0.159188
60 1 0.854879 0.963744 0.13564
540 2 0.774572 0.819123 0.164933
610 2 0.108311 0.302393 0.234623
118 1 0.10197 0.0844736 0.178241
107 1 0.172351 0.342421 0.172564
128 1 0.0991923 0.997952 0.221378
638 2 0.151958 0.244017 0.200078
74 1 0.264768 0.184495 0.169104
112 1 0.488785 0.130647 0.175109
110 1 0.452635 0.120294 0.214541
603 2 0.267409 0.0224821 0.239626
157 1 0.572532 0.040132 0.197261
55 1 0.721209 0.0816647 0.220601
105 1 0.792094 0.0364244 0.183721
109 1 0.0342942 0.161258 0.204448
605 2 0.866101 0.13916 0.226058
595 2 0.19488 0.494793 0.120873
54 1 0.0413736 0.463553 0.184744
535 2 0.0440885 0.441428 0.224149
651 2 0.231327 0.395612 0.223483
556 2 0.343013 0.328703 0.164546
586 2 0.44821 0.342127 0.223893
611 2 0.288076 0.295547 0.200681
84 1 0.434758 0.264272 0.194097
608 2 0.476099 0.535822 0.202849
607 2 0.618369 0.203405 0.221616
580 2 0.900016 0.336278 0.21566
150 1 0.703919 0.41711 0.172255
81 1 0.811652 0.45451 0.20122
585 2 0.745101 0.279603 0.201692
622 2 0.122381 0.568567 0.211088
606 2 0.306335 0.595792 0.23624
632 2 0.110431 0.58047 0.153719
87 1 0.218951 0.480482 0.191736
591 2 0.309566 0.728888 0.23094
72 1 0.236068 0.651254 0.197238
570 2 0.437365 0.701129 0.211859
635 2 0.592268 0.383013 0.205484
563 2 0.814033 0.729862 0.199609
593 2 0.586164 0.618411 0.213675
104 1 0.972334 0.733637 0.186571
108 1 0.885816 0.881493 0.193
665 2 0.802133 0.625885 0.243896
596 2 0.073418 0.880704 0.192218
642 2 0.996691 0.832314 0.223997
578 2 0.103366 0.941678 0.158793
616 2 0.203419 0.819023 0.206046
127 1 0.212577 0.976039 0.198667
613 2 0.33086 0.917445 0.218585
562 2 0.350469 0.819962 0.187451
134 1 0.476099 0.932428 0.235134
69 1 0.472073 0.918934 0.194598
68 1 0.629328 0.882457 0.170108
572 2 0.676342 0.945547 0.237636
144 1 0.546598 0.734453 0.184135
149 1 0.55072 0.789794 0.219486
117 1 0.822014 0.911341 0.226947
530 2 0.717315 0.889206 0.203314
648 2 0.869144 0.804124 0.246306
567 2 0.0209824 0.836416 0.265775
113 1 0.693655 0.784988 0.23059
602 2 0.313158 0.136774 0.27526
172 1 0.0351158 0.0899682 0.288863
102 1 0.95151 0.0214133 0.208304
568 2 0.139164 0.882168 0.242981
176 1 0.123955 0.0325613 0.260306
137 1 0.308747 0.349633 0.27513
124 1 0.428013 0.0499441 0.252935
626 2 0.29098 0.138788 0.206901
612 2 0.450085 0.214189 0.283113
163 1 0.32944 0.0882436 0.314226
579 2 0.571592 0.0834839 0.243315
653 2 0.608162 0.165316 0.272343
151 1 0.725601 0.0620481 0.262372
623 2 0.745997 0.194503 0.247901
138 1 0.503956 0.215562 0.245979
667 2 0.0102616 0.0926899 0.241602
614 2 0.88621 0.00629442 0.255166
618 2 0.134441 0.418343 0.258431
569 2 0.167222 0.143066 0.235035
145 1 0.193421 0.237922 0.27957
135 1 0.982906 0.379956 0.263382
119 1 0.0593041 0.213456 0.267942
140 1 0.338578 0.260752 0.244041
636 2 0.27826 0.554609 0.272776
675 2 0.4806 0.350273 0.270567
114 1 0.381643 0.305988 0.312354
637 2 0.548162 0.331287 0.306353
670 2 0.655646 0.321119 0.238918
123 1 0.621389 0.410068 0.27278
601 2 0.957695 0.246352 0.245998
652 2 0.91008 0.134963 0.27047
634 2 0.892872 0.460727 0.235436
129 1 0.80983 0.429591 0.279966
161 1 0.796551 0.348264 0.248048
620 2 0.105718 0.679157 0.287997
609 2 0.0384661 0.569589 0.258891
142 1 0.44714 0.633073 0.247737
624 2 0.322952 0.707445 0.271046
617 2 0.393427 0.460551 0.246256
146 1 0.494039 0.504984 0.274441
164 1 0.507391 0.686406 0.280343
67 1 0.566934 0.477261 0.233815
592 2 0.716906 0.535537 0.227314
115 1 0.660552 0.655756 0.251226
630 2 0.70563 0.536358 0.273687
169 1 0.948565 0.66311 0.225928
629 2 0.879642 0.556827 0.268343
130 1 0.123308 0.352708 0.293809
639 2 0.839655 0.578186 0.310042
120 1 0.161863 0.701355 0.248465
121 1 0.0617351 0.935667 0.293626
672 2 0.299803 0.869452 0.249653
247 1 0.203694 0.810802 0.276261
103 1 0.43747 0.787126 0.255608
153 1 0.418572 0.902446 0.278392
696 2 0.393602 0.777528 0.296983
131 1 0.555944 0.953823 0.271167
647 2 0.607785 0.810173 0.261397
625 2 0.749042 0.906323 0.271317
160 1 0.775859 0.698872 0.276693
588 2 0.917947 0.912081 0.283191
621 2 0.960795 0.698795 0.273175
175 1 0.999021 0.0231243 0.335911
646 2 0.223624 0.205363 0.318369
680 2 0.138462 0.064369 0.312717
185 1 0.0802001 0.211131 0.311162
197 1 0.477986 0.172596 0.327032
183 1 0.48151 0.0631405 0.294823
706 2 0.399252 0.0125054 0.350676
640 2 0.645637 0.194296 0.313259
627 2 0.773433 0.120679 0.324194
126 1 0.79467 0.184838 0.287355
662 2 0.737312 0.304966 0.3281
180 1 0.952141 0.299331 0.293145
679 2 0.914963 0.158552 0.31287
166 1 0.290168 0.467983 0.307769
106 1 0.145645 0.220014 0.360509
156 1 0.0709084 0.507801 0.345359
661 2 0.226147 0.479444 0.343425
201 1 0.325731 0.180664 0.352387
650 2 0.573346 0.281803 0.340477
167 1 0.446448 0.37973 0.347973
158 1 0.621203 0.488192 0.30765
584 2 0.947702 0.410076 0.33733
687 2 0.907846 0.259594 0.33825
699 2 0.714119 0.313815 0.287308
666 2 0.887334 0.574296 0.352648
641 2 0.149083 0.504454 0.291273
191 1 0.977238 0.645656 0.32576
207 1 0.156802 0.628509 0.326206
720 2 0.331631 0.680114 0.347344
168 1 0.463389 0.461507 0.312472
697 2 0.365006 0.605388 0.306653
194 1 0.787183 0.447855 0.323095
619 2 0.607453 0.63221 0.307101
148 1 0.550569 0.536288 0.340512
170 1 0.688558 0.580108 0.33632
649 2 0.977581 0.509514 0.299498
700 2 0.00824641 0.844647 0.336923
231 1 0.165745 0.889571 0.318293
147 1 0.559402 0.900952 0.307993
177 1 0.242416 0.978427 0.285509
691 2 0.249415 0.743435 0.314596
673 2 0.467682 0.664588 0.327106
702 2 0.257741 0.91014 0.351601
178 1 0.354582 0.932784 0.318068
658 2 0.551121 0.0316938 0.332139
628 2 0.818373 0.0196737 0.295377
154 1 0.674933 0.777404 0.305474
190 1 0.637569 0.0392095 0.296414
195 1 0.58303 0.705146 0.349947
152 1 0.0409573 0.803779 0.304487
155 1 0.849497 0.765303 0.310066
655 2 0.720199 0.961812 0.319528
674 2 0.861594 0.733473 0.346448
182 1 0.213328 0.03932 0.344956
677 2 0.107029 0.153513 0.396273
188 1 0.2063 0.0430121 0.384033
136 1 0.435355 0.264026 0.369531
238 1 0.522163 0.0215036 0.377739
736 2 0.287317 0.217726 0.392438
213 1 0.390374 0.111665 0.393283
162 1 0.386539 0.264487 0.417627
678 2 0.59687 0.148467 0.359802
187 1 0.547566 0.166424 0.397162
698 2 0.720692 0.0847394 0.394007
686 2 0.60579 0.315005 0.377581
692 2 0.460848 0.39775 0.397641
133 1 0.741378 0.205691 0.363896
159 1 0.830228 0.0400672 0.349482
179 1 0.0306375 0.160545 0.344423
657 2 0.295727 0.326379 0.344789
656 2 0.113511 0.341566 0.334363
220 1 0.153526 0.4055 0.369606
186 1 0.0784458 0.439653 0.42318
710 2 0.125874 0.301056 0.404353
669 2 0.388703 0.420862 0.443475
132 1 0.301367 0.372658 0.381698
688 2 0.199303 0.485246 0.39844
143 1 0.595117 0.452898 0.380756
643 2 0.750352 0.413 0.401317
718 2 0.532878 0.272083 0.423089
217 1 0.666687 0.412386 0.351209
244 1 0.908098 0.425598 0.412534
664 2 0.826452 0.318989 0.37862
165 1 0.968549 0.245091 0.381421
693 2 0.984366 0.429524 0.376972
199 1 0.174285 0.608923 0.368541
205 1 0.048486 0.757915 0.39908
645 2 0.300961 0.567975 0.37322
171 1 0.408292 0.538225 0.346457
631 2 0.478139 0.578629 0.390852
221 1 0.290586 0.732866 0.3803
725 2 0.557489 0.845218 0.395349
198 1 0.658968 0.714864 0.385803
173 1 0.530508 0.704403 0.410255
676 2 0.679331 0.840982 0.345262
223 1 0.464882 0.728399 0.377907
723 2 0.628072 0.570233 0.403466
196 1 0.983035 0.655521 0.373561
216 1 0.875066 0.556183 0.399173
644 2 0.756867 0.53444 0.367112
275 1 0.905928 0.538287 0.437697
737 2 0.799335 0.679502 0.381455
246 1 0.934842 0.676974 0.42364
225 1 0.123379 0.761683 0.354501
682 2 0.100212 0.934107 0.362949
660 2 0.0381523 0.948447 0.404292
236 1 0.133174 0.0210199 0.426425
202 1 0.394243 0.859234 0.353465
232 1 0.345943 0.906351 0.387293
212 1 0.176416 0.875093 0.390959
174 1 0.649768 0.788681 0.424649
724 2 0.534585 0.897709 0.35947
719 2 0.678611 0.0174264 0.355943
690 2 0.967246 0.996533 0.375215
654 2 0.879173 0.908497 0.325785
200 1 0.930455 0.842591 0.376552
211 1 0.197992 0.183131 0.432245
181 1 0.989119 0.133866 0.420169
265 1 0.304641 0.194318 0.458519
735 2 0.247818 0.985725 0.455527
235 1 0.37033 0.102962 0.429013
233 1 0.531717 0.0506508 0.438277
733 2 0.338672 0.928357 0.49242
633 2 0.616214 0.980048 0.405772
684 2 0.741505 0.0276807 0.468238
716 2 0.656143 0.119609 0.431275
705 2 0.81227 0.0850316 0.427873
189 1 0.858282 0.146675 0.387094
715 2 0.949577 0.071158 0.45455
184 1 0.111904 0.311437 0.439428
192 1 0.0741097 0.419195 0.472262
296 1 0.186513 0.563526 0.44768
261 1 0.262219 0.352317 0.416932
242 1 0.320437 0.549614 0.413643
234 1 0.450149 0.249905 0.457599
239 1 0.582237 0.31422 0.464446
689 2 0.704051 0.305962 0.442545
721 2 0.636454 0.47143 0.471135
659 2 0.83574 0.231587 0.420365
240 1 0.711794 0.476376 0.438627
709 2 0.690306 0.254254 0.406165
215 1 0.762902 0.189 0.467829
767 2 0.952344 0.312612 0.448459
203 1 0.0464168 0.560925 0.399796
745 2 0.105421 0.702372 0.437763
222 1 0.0296443 0.559358 0.457528
741 2 0.268061 0.806725 0.420299
237 1 0.388959 0.68092 0.409266
722 2 0.53745 0.730578 0.445782
712 2 0.203012 0.669744 0.406806
779 2 0.466661 0.543644 0.42689
713 2 0.307635 0.680985 0.450416
193 1 0.568551 0.416979 0.429576
204 1 0.60768 0.597675 0.439026
663 2 0.778598 0.581768 0.462598
229 1 0.756683 0.649599 0.423822
206 1 0.81497 0.776518 0.441739
681 2 0.918311 0.9549 0.426199
755 2 0.97383 0.815391 0.431525
746 2 0.12744 0.863852 0.435579
251 1 0.0838575 0.985957 0.460478
278 1 0.201764 0.674382 0.475303
214 1 0.440912 0.949184 0.457714
257 1 0.269788 0.98918 0.417721
707 2 0.424936 0.810689 0.423869
708 2 0.322404 0.858964 0.453441
208 1 0.443927 0.97897 0.415482
683 2 0.605673 0.926469 0.442105
228 1 0.68525 0.712601 0.458773
727 2 0.581558 0.873457 0.48011
717 2 0.753363 0.920356 0.440274
703 2 0.700497 0.892051 0.382776
209 1 0.814259 0.829263 0.406488
749 2 0.817564 0.972848 0.386538
321 1 0.174527 0.113329 0.472005
284 1 0.279351 0.0658216 0.503071
290 1 0.954921 0.027326 0.522936
753 2 0.379641 0.0690377 0.46776
264 1 0.549779 0.0387617 0.482614
731 2 0.408334 0.978636 0.527488
742 2 0.355515 0.212535 0.490819
734 2 0.584533 0.160372 0.464051
778 2 0.535129 0.24339 0.543693
804 2 0.657224 0.151804 0.515181
250 1 0.882144 0.0501771 0.486178
210 1 0.0471335 0.0900329 0.493797
260 1 0.850498 0.279146 0.507654
308 1 0.812177 0.13331 0.519831
763 2 0.193371 0.274492 0.471616
711 2 0.944978 0.201625 0.479587
272 1 0.15176 0.353183 0.503669
791 2 0.0307629 0.238623 0.515414
714 2 0.479529 0.440459 0.471866
732 2 0.209085 0.42544 0.46736
747 2 0.334349 0.360506 0.48037
738 2 0.548678 0.264728 0.500205
269 1 0.549234 0.409899 0.505365
739 2 0.697033 0.322031 0.492702
685 2 0.820888 0.398531 0.465232
230 1 0.830637 0.432054 0.515919
765 2 0.979391 0.391714 0.534092
740 2 0.946238 0.370692 0.490916
695 2 0.179457 0.541015 0.49329
762 2 0.0267925 0.499862 0.50509
267 1 0.243435 0.508029 0.522913
766 2 0.22183 0.663128 0.520783
701 2 0.049549 0.695582 0.475204
754 2 0.0660452 0.648416 0.534219
792 2 0.34969 0.522077 0.470153
218 1 0.491912 0.619653 0.471399
227 1 0.351509 0.643683 0.496637
249 1 0.377735 0.491538 0.505223
744 2 0.706029 0.476609 0.506342
694 2 0.663261 0.6184 0.48918
748 2 0.497376 0.59986 0.509797
300 1 0.533935 0.735338 0.497811
668 2 0.775609 0.71863 0.504518
262 1 0.910597 0.505014 0.481152
245 1 0.76406 0.559119 0.532404
314 1 0.937424 0.631765 0.509939
726 2 0.164805 0.8631 0.471508
793 2 0.130475 0.807077 0.511452
255 1 0.436519 0.777706 0.468704
752 2 0.28362 0.778548 0.492259
729 2 0.689197 0.00393929 0.50755
279 1 0.55376 0.896776 0.534189
772 2 0.750438 0.866468 0.477815
774 2 0.933721 0.765768 0.479284
224 1 0.900874 0.894964 0.462028
243 1 0.848271 0.911472 0.506477
799 2 0.0167916 0.918196 0.49695
770 2 0.980535 0.794909 0.519805
704 2 0.690713 0.849185 0.51606
256 1 0.0831534 0.909254 0.53827
757 2 0.212026 0.194921 0.514333
802 2 0.201743 0.0449846 0.587555
781 2 0.196993 0.1741 0.548775
287 1 0.246166 0.0278706 0.537167
310 1 0.318247 0.128771 0.576348
809 2 0.535611 0.0704884 0.571703
289 1 0.418308 0.109478 0.544403
277 1 0.690576 0.0824275 0.587914
824 2 0.568941 0.0600529 0.534689
309 1 0.488469 0.134403 0.511488
759 2 0.696456 0.143486 0.550592
294 1 0.993902 0.161904 0.546449
789 2 0.839752 0.0368838 0.555711
280 1 0.114404 0.0739331 0.529769
281 1 0.000860969 0.0362389 0.566085
788 2 0.218293 0.243603 0.58254
298 1 0.26731 0.381962 0.590906
286 1 0.0656644 0.310017 0.558016
295 1 0.206853 0.353238 0.541174
315 1 0.107823 0.508893 0.537148
259 1 0.417464 0.334295 0.518789
728 2 0.336063 0.251317 0.543903
764 2 0.394566 0.263234 0.577398
285 1 0.517952 0.398558 0.552803
263 1 0.326008 0.411472 0.554651
219 1 0.716507 0.330314 0.533758
761 2 0.844784 0.249795 0.547546
270 1 0.69421 0.29656 0.575323
794 2 0.553486 0.317739 0.59619
845 2 0.688584 0.427113 0.595308
790 2 0.914884 0.516978 0.558768
299 1 0.253932 0.566055 0.561866
797 2 0.116995 0.629134 0.571066
775 2 0.348819 0.708316 0.565253
293 1 0.428627 0.422286 0.5955
769 2 0.422221 0.55258 0.581326
366 1 0.575253 0.542755 0.547397
254 1 0.658477 0.679917 0.535054
288 1 0.529926 0.680405 0.578692
273 1 0.802942 0.701809 0.583322
274 1 0.780749 0.444028 0.562008
241 1 0.665764 0.580984 0.591124
297 1 0.813428 0.946855 0.590529
350 1 0.646603 0.771343 0.570365
780 2 0.162963 0.95826 0.503801
751 2 0.195463 0.743727 0.550627
798 2 0.308441 0.818613 0.532744
796 2 0.255028 0.918177 0.565648
266 1 0.456335 0.860345 0.50447
743 2 0.36466 0.842291 0.588751
258 1 0.401296 0.571823 0.539451
348 1 0.416865 0.964668 0.566383
823 2 0.765251 0.823122 0.5469
322 1 0.474067 0.72993 0.540192
282 1 0.676418 0.966674 0.555124
777 2 0.518573 0.867113 0.574534
306 1 0.855352 0.706254 0.537404
730 2 0.912404 0.899103 0.552237
785 2 0.999868 0.701317 0.585296
302 1 0.0233863 0.205331 0.586879
771 2 0.230353 0.129457 0.622523
760 2 0.344178 0.00626455 0.603049
372 1 0.413161 0.137489 0.618814
374 1 0.687834 0.10598 0.636586
301 1 0.797683 0.197713 0.637109
311 1 0.785759 0.283447 0.607488
784 2 0.875678 0.152772 0.581731
776 2 0.90111 0.323762 0.581597
305 1 0.832012 0.273204 0.676374
291 1 0.115691 0.316893 0.608541
349 1 0.125861 0.445306 0.577912
292 1 0.302477 0.424573 0.629106
782 2 0.223551 0.27147 0.642047
248 1 0.484979 0.39978 0.634069
832 2 0.352852 0.270583 0.614527
268 1 0.583814 0.177031 0.605521
834 2 0.374891 0.29245 0.658394
342 1 0.535041 0.336237 0.674416
320 1 0.807172 0.401346 0.625474
335 1 0.639071 0.329894 0.63516
319 1 0.499404 0.243091 0.64271
817 2 0.911214 0.272957 0.628574
313 1 0.836104 0.531285 0.598104
331 1 0.976057 0.40398 0.613152
816 2 0.802447 0.480963 0.67655
811 2 0.0254275 0.540898 0.599576
341 1 0.250423 0.527141 0.599575
814 2 0.136148 0.640138 0.613461
357 1 0.1479 0.467013 0.620329
328 1 0.406238 0.560027 0.618789
253 1 0.324992 0.674242 0.602796
226 1 0.614617 0.466053 0.627653
750 2 0.772316 0.669681 0.628614
768 2 0.544936 0.634202 0.619203
303 1 0.734449 0.53193 0.64314
325 1 0.635642 0.743818 0.634241
795 2 0.889659 0.787311 0.605946
825 2 0.932262 0.650379 0.623732
840 2 0.88101 0.541454 0.645942
850 2 0.0816621 0.0398356 0.604867
800 2 0.109907 0.900038 0.579075
822 2 0.0561974 0.821588 0.607813
368 1 0.205447 0.783029 0.626249
252 1 0.203153 0.933195 0.616645
756 2 0.315237 0.00844133 0.639163
283 1 0.208136 0.749261 0.587522
326 1 0.465996 0.994928 0.62715
842 2 0.380296 0.858467 0.629107
783 2 0.660261 0.886065 0.592119
758 2 0.594293 0.0177315 0.610023
818 2 0.528983 0.815992 0.614701
324 1 0.61912 0.91534 0.655291
803 2 0.552366 0.0891694 0.650486
808 2 0.810358 0.0633463 0.613935
843 2 0.756 0.85766 0.622065
865 2 0.956794 0.943336 0.605471
849 2 0.821428 0.0156348 0.65542
355 1 0.90051 0.881565 0.638903
347 1 0.1568 0.0973249 0.660316
332 1 0.939566 0.143265 0.658143
829 2 0.0791596 0.138406 0.690266
807 2 0.077256 0.213574 0.639616
787 2 0.314832 0.142944 0.655315
833 2 0.279596 0.08324 0.696838
333 1 0.447381 0.198642 0.680378
827 2 0.637827 0.0252061 0.718404
304 1 0.685426 0.0272865 0.680774
330 1 0.510749 0.0980784 0.707311
376 1 0.636128 0.19345 0.668684
390 1 0.596072 0.227528 0.706079
810 2 0.965651 0.133039 0.617945
846 2 0.825217 0.0996655 0.683434
377 1 0.997413 0.284322 0.667541
812 2 0.202846 0.419761 0.658169
861 2 0.0344055 0.414148 0.648644
416 1 0.141571 0.259401 0.675123
424 1 0.147016 0.375381 0.704915
323 1 0.274338 0.232999 0.693147
338 1 0.403107 0.318681 0.701946
851 2 0.308988 0.466079 0.697296
365 1 0.712655 0.367692 0.684623
364 1 0.495455 0.492761 0.692603
339 1 0.572353 0.356531 0.722563
773 2 0.623921 0.545204 0.676432
871 2 0.884428 0.283651 0.714611
801 2 0.275658 0.580694 0.637677
387 1 0.192722 0.546985 0.678976
891 2 0.0700586 0.6058 0.646974
317 1 0.449604 0.677887 0.64728
862 2 0.37789 0.427148 0.66734
900 2 0.373548 0.594507 0.681157
847 2 0.488066 0.528314 0.656285
340 1 0.656162 0.599893 0.70996
343 1 0.621011 0.807627 0.684434
813 2 0.689114 0.65585 0.664001
848 2 0.994561 0.601647 0.680945
838 2 0.842673 0.617426 0.695587
839 2 0.881317 0.720895 0.657607
860 2 0.0207121 0.741059 0.640344
271 1 0.994953 0.0139623 0.646946
867 2 0.282036 0.815397 0.665129
821 2 0.0940688 0.895123 0.647212
815 2 0.208771 0.683374 0.656076
855 2 0.994872 0.819526 0.690171
396 1 0.0745642 0.977738 0.683706
820 2 0.232583 0.963408 0.671968
276 1 0.534885 0.951263 0.686093
346 1 0.422521 0.0327467 0.670978
874 2 0.324406 0.906533 0.702226
826 2 0.762711 0.869589 0.667131
358 1 0.680324 0.880057 0.71394
819 2 0.434115 0.869831 0.669955
423 1 0.762014 0.758556 0.694769
864 2 0.923399 0.933393 0.673534
805 2 0.20135 0.952979 0.726875
881 2 0.119187 0.0451607 0.756311
830 2 0.06482 0.183091 0.746772
786 2 0.273001 0.100816 0.739238
854 2 0.392538 0.111233 0.75689
353 1 0.42569 0.210899 0.728101
835 2 0.279567 0.348704 0.727113
329 1 0.626237 0.20804 0.744091
869 2 0.824906 0.990998 0.733302
853 2 0.779378 0.165337 0.723501
352 1 0.940209 0.0723759 0.712368
863 2 0.0348407 0.271504 0.713615
384 1 0.0468542 0.969377 0.726365
879 2 0.907499 0.114879 0.747769
857 2 0.233171 0.49505 0.729481
876 2 0.179489 0.199437 0.721968
828 2 0.224926 0.436726 0.767172
361 1 0.00699566 0.406637 0.728075
359 1 0.444889 0.432723 0.725303
307 1 0.291965 0.248512 0.763039
837 2 0.40098 0.336694 0.755839
844 2 0.640476 0.487592 0.732843
889 2 0.514168 0.462428 0.76095
414 1 0.655225 0.349885 0.768555
345 1 0.925815 0.45141 0.697541
859 2 0.739158 0.318805 0.721552
930 2 0.788899 0.26001 0.759936
385 1 0.950662 0.303404 0.747585
410 1 0.0540488 0.482578 0.760169
836 2 0.0958925 0.713169 0.678442
386 1 0.094226 0.540808 0.708795
362 1 0.204782 0.64403 0.707924
312 1 0.143582 0.605271 0.751295
408 1 0.357357 0.483929 0.752992
373 1 0.370981 0.571455 0.716799
367 1 0.305355 0.653795 0.743562
873 2 0.525291 0.68579 0.681632
360 1 0.517886 0.585592 0.719575
898 2 0.764922 0.667145 0.731497
375 1 0.621397 0.639378 0.747641
875 2 0.906603 0.75125 0.719079
370 1 0.786295 0.470698 0.714465
473 1 0.923955 0.592316 0.732053
841 2 0.205124 0.785117 0.695296
896 2 0.0474062 0.690431 0.715843
877 2 0.165361 0.902637 0.780155
872 2 0.354011 0.887853 0.743288
831 2 0.357029 0.751232 0.696589
318 1 0.43637 0.726252 0.72859
371 1 0.17292 0.789761 0.747554
886 2 0.468496 0.96117 0.767241
897 2 0.399646 0.76512 0.768902
316 1 0.45068 0.975211 0.725254
334 1 0.595922 0.923325 0.743045
430 1 0.533176 0.807308 0.750837
327 1 0.502187 0.844341 0.715139
909 2 0.625699 0.749487 0.718271
404 1 0.797585 0.820188 0.742125
398 1 0.00994842 0.792879 0.748939
356 1 0.961649 0.973962 0.760074
379 1 0.901618 0.888783 0.714442
413 1 0.170012 0.177234 0.772088
412 1 0.405852 0.178034 0.836885
921 2 0.00203597 0.00700477 0.827416
369 1 0.30308 0.108875 0.790946
941 2 0.424398 0.0306689 0.816971
924 2 0.492163 0.106321 0.790099
389 1 0.737941 0.054741 0.760604
882 2 0.570684 0.086148 0.757069
382 1 0.542939 0.888591 0.841193
920 2 0.592588 0.0176792 0.826968
892 2 0.732778 0.216397 0.794177
880 2 0.000801762 0.0829252 0.782522
922 2 0.818849 0.105052 0.793987
990 2 0.923463 0.221598 0.78287
806 2 0.983219 0.370369 0.783402
393 1 0.128337 0.330477 0.745223
910 2 0.280066 0.297202 0.83619
932 2 0.0905187 0.175148 0.806039
363 1 0.22641 0.265816 0.799459
441 1 0.130421 0.440293 0.808341
443 1 0.420457 0.407847 0.794244
984 2 0.438445 0.31982 0.824425
460 1 0.821655 0.376163 0.78364
884 2 0.49901 0.269915 0.785049
391 1 0.601403 0.566404 0.784457
449 1 0.738809 0.498766 0.760251
381 1 0.728853 0.500059 0.798653
351 1 0.921011 0.444504 0.814246
964 2 0.857438 0.276079 0.81782
944 2 0.0140907 0.542373 0.834743
344 1 0.0932206 0.709848 0.778546
401 1 0.308697 0.727911 0.845059
912 2 0.052582 0.567907 0.793794
400 1 0.465527 0.620016 0.761337
858 2 0.309298 0.545399 0.787138
917 2 0.380172 0.695408 0.807148
915 2 0.340602 0.560599 0.827384
887 2 0.531793 0.664657 0.831416
422 1 0.760812 0.647763 0.770756
337 1 0.561379 0.744812 0.79334
972 2 0.668452 0.772144 0.760044
893 2 0.89934 0.472515 0.755805
411 1 0.929339 0.630151 0.775736
856 2 0.868833 0.603307 0.815862
406 1 0.0347024 0.891187 0.801291
942 2 0.220633 0.813017 0.815901
392 1 0.235263 0.687798 0.786722
916 2 0.14597 0.0263229 0.797578
911 2 0.0470123 0.731372 0.818667
852 2 0.320364 0.96622 0.77712
383 1 0.409294 0.869584 0.809169
895 2 0.666771 0.0441532 0.794193
397 1 0.590358 0.91313 0.789656
354 1 0.745739 0.89277 0.776789
899 2 0.863096 0.785061 0.775862
885 2 0.878295 0.81309 0.811486
421 1 0.69135 0.902073 0.816086
378 1 0.260923 0.142941 0.830267
388 1 0.278409 0.197098 0.866203
457 1 0.130769 0.0643923 0.852904
476 1 0.280214 0.989092 0.820893
380 1 0.36489 0.0429006 0.855504
440 1 0.408408 0.298965 0.862727
403 1 0.278206 0.968969 0.895783
928 2 0.406796 0.123183 0.887654
429 1 0.570045 0.202413 0.820715
949 2 0.531843 0.176932 0.860106
399 1 0.705339 0.0339236 0.860869
425 1 0.804602 0.00853136 0.824471
499 1 0.820374 0.130946 0.843801
976 2 0.693345 0.142703 0.828295
955 2 0.969102 0.172102 0.838989
953 2 0.691514 0.199412 0.868267
431 1 0.040203 0.320781 0.82597
878 2 0.125038 0.225073 0.848038
445 1 0.406826 0.454353 0.854921
418 1 0.243547 0.351044 0.874196
462 1 0.54386 0.339643 0.850326
405 1 0.610346 0.35271 0.808184
975 2 0.662036 0.397094 0.86771
935 2 0.48216 0.525466 0.816613
394 1 0.638297 0.517069 0.835752
417 1 0.767057 0.317711 0.845226
435 1 0.939734 0.316762 0.860842
913 2 0.156926 0.611428 0.829805
940 2 0.136627 0.454304 0.854646
937 2 0.270234 0.492235 0.859202
22 1 0.137083 0.785579 0.854999
943 2 0.422637 0.639336 0.857952
866 2 0.509303 0.777871 0.864226
901 2 0.277372 0.433322 0.819313
939 2 0.566654 0.577246 0.865826
933 2 0.731614 0.622339 0.831171
870 2 0.749193 0.733471 0.800607
931 2 0.709575 0.551809 0.86816
497 1 0.968217 0.674894 0.84366
883 2 0.779183 0.466123 0.833448
890 2 0.862591 0.597325 0.859734
336 1 0.83185 0.757135 0.85071
452 1 0.246791 0.924328 0.86004
968 2 0.122972 0.945271 0.878091
428 1 0.123141 0.92826 0.835572
434 1 0.38694 0.876431 0.848527
923 2 0.662147 0.695425 0.862657
919 2 0.650284 0.757083 0.828806
481 1 0.521915 0.0103592 0.863106
868 2 0.662292 0.878193 0.863571
420 1 0.895292 0.962258 0.792856
451 1 0.823027 0.907961 0.860751
453 1 0.968761 0.0204121 0.865119
469 1 0.982413 0.84151 0.847303
995 2 0.135857 0.0709108 0.90261
996 2 0.993122 0.249405 0.910195
446 1 0.243342 0.153618 0.931732
954 2 0.0344198 0.156665 0.880529
934 2 0.304444 0.233931 0.900793
908 2 0.535968 0.199241 0.900017
493 1 0.410913 0.209926 0.92501
904 2 0.641354 0.100051 0.892042
2 1 0.565344 0.14583 0.940204
427 1 0.495876 0.993516 0.911738
484 1 0.704319 0.0825006 0.932406
888 2 0.851364 0.247242 0.883734
479 1 0.0597558 0.1712 0.942937
75 1 0.851717 0.20459 0.923362
426 1 0.0737179 0.371931 0.883269
483 1 0.160835 0.229192 0.895269
25 1 0.132752 0.411011 0.921228
436 1 0.292699 0.323566 0.927992
974 2 0.393988 0.365238 0.896675
32 1 0.337699 0.353353 0.966837
960 2 0.526651 0.454929 0.88926
409 1 0.722999 0.258428 0.90323
965 2 0.601336 0.340822 0.921354
415 1 0.647442 0.555173 0.911313
966 2 0.829805 0.401383 0.872427
480 1 0.85073 0.336841 0.953138
983 2 0.929572 0.382007 0.902092
465 1 0.782448 0.429488 0.921674
407 1 0.0658727 0.629643 0.870881