ITEM: TIMESTEP
4360
ITEM: NUMBER OF ATOMS
1000
ITEM: BOX BOUNDS pp pp pp
0.0000000000000000e+00 6.2996052494743662e+00
0.0000000000000000e+00 6.2996052494743662e+00
0.0000000000000000e+00 2.5198420997897465e+01
ITEM: ATOMS id type xs ys zs
11 1 0.097442 0.0974719 0.0502279
51 1 0.190702 0.20518 0.0445659
477 1 0.109633 0.110758 0.000583122
957 2 0.221522 0.208745 0.999456
951 2 0.244659 0.0554007 0.0382602
58 1 0.56433 0.139405 0.0145461
512 2 0.422039 0.151862 0.0257626
506 2 0.525329 0.201277 0.0621528
983 2 0.714514 0.990019 0.0155463
14 1 0.657011 0.291982 0.0712309
508 2 0.710541 0.128923 0.0414985
980 2 0.699923 0.149681 0.997084
485 1 0.82335 0.2608 0.0504106
5 1 0.999908 0.0178019 0.0666465
521 2 0.906482 0.223063 0.0177615
529 2 0.861626 0.0319217 0.0535135
992 2 0.17769 0.370645 0.0149152
977 2 0.0552528 0.243919 0.012451
545 2 0.28794 0.3781 0.0522547
40 1 0.120899 0.344376 0.0620696
510 2 0.335167 0.280808 0.0219672
518 2 0.332108 0.434127 0.991818
999 2 0.475975 0.36189 0.990675
484 1 0.736794 0.494101 0.993416
33 1 0.576261 0.287726 0.0302814
49 1 0.517319 0.446365 0.056667
6 1 0.692228 0.403023 0.0281765
989 2 0.590051 0.42326 0.00314476
985 2 0.997354 0.255499 0.0499824
981 2 0.970186 0.390699 0.0244536
490 1 0.83271 0.352385 0.00861738
15 1 0.858425 0.504881 0.0337773
961 2 0.921349 0.518466 0.990246
511 2 0.100411 0.468972 0.0371072
70 1 0.135228 0.646459 0.0397797
516 2 0.311544 0.623746 0.0211383
47 1 0.284788 0.786435 0.0166112
564 2 0.194649 0.639844 0.0736418
18 1 0.436431 0.721704 0.0289068
4 1 0.487304 0.554876 0.00795143
43 1 0.395157 0.469036 0.0277341
514 2 0.650642 0.578409 0.0165714
519 2 0.501225 0.582286 0.0465517
3 1 0.565995 0.696958 0.012888
24 1 0.722008 0.71329 0.0119607
524 2 0.751559 0.645941 0.0431452
45 1 0.985761 0.601734 0.0348195
100 1 0.00527145 0.683258 0.0676972
17 1 0.841297 0.614537 0.0147999
540 2 0.144468 0.802871 0.0322651
544 2 0.0828135 0.863206 0.987879
1 1 0.100626 0.972779 0.024209
12 1 0.424408 0.00660664 0.0432962
525 2 0.298411 0.902968 0.0460162
27 1 0.453973 0.84989 0.0479599
8 1 0.407138 0.85932 0.00747023
503 2 0.633716 0.952208 0.059093
504 2 0.580093 0.856709 0.0291513
9 1 0.736672 0.849229 0.0400817
75 1 0.000656937 0.872279 0.0194645
976 2 0.865055 0.939122 0.0102215
505 2 0.903868 0.753591 0.0328141
500 1 0.836181 0.848637 0.978052
530 2 0.168462 0.0626962 0.0834197
532 2 0.22452 0.132274 0.112035
77 1 0.146037 0.306741 0.139497
26 1 0.211717 0.962822 0.109359
13 1 0.347165 0.124246 0.0878491
526 2 0.494303 0.0910831 0.0828858
36 1 0.382391 0.00774969 0.122602
63 1 0.408618 0.254865 0.0958597
528 2 0.660497 0.126051 0.0778729
527 2 0.601451 0.130357 0.117414
59 1 0.81924 0.0845292 0.118586
34 1 0.988775 0.085398 0.0981816
80 1 0.898657 0.161595 0.0700724
35 1 0.106518 0.199245 0.0910307
61 1 0.247988 0.294816 0.0936498
89 1 0.0464148 0.389559 0.098763
7 1 0.331135 0.223938 0.0584322
517 2 0.387716 0.407731 0.0842661
538 2 0.443256 0.325177 0.0477246
559 2 0.762567 0.39578 0.0746357
998 2 0.500941 0.511976 0.0895917
558 2 0.525262 0.329323 0.0859477
562 2 0.635914 0.460913 0.101486
553 2 0.645693 0.276702 0.112044
88 1 0.774309 0.353208 0.121751
10 1 0.0469849 0.512843 0.0696412
533 2 0.770248 0.209938 0.0973922
509 2 0.911925 0.378967 0.0638296
99 1 0.937599 0.256723 0.0958757
64 1 0.90205 0.453726 0.11732
86 1 0.214364 0.46221 0.0858682
560 2 0.103692 0.715044 0.100211
71 1 0.929163 0.776194 0.105462
38 1 0.311652 0.609764 0.0947042
23 1 0.488509 0.684924 0.0979643
42 1 0.355735 0.534983 0.0610762
537 2 0.500072 0.56277 0.121649
50 1 0.668085 0.510942 0.0555837
539 2 0.6609 0.670907 0.114017
543 2 0.601217 0.625699 0.0765338
549 2 0.71447 0.734392 0.0772825
513 2 0.756016 0.536889 0.0920076
39 1 0.940131 0.592513 0.0992976
565 2 0.87359 0.58808 0.068551
95 1 0.870307 0.746295 0.0696054
502 2 0.167201 0.919931 0.0605597
542 2 0.220317 0.808652 0.0864039
37 1 0.351676 0.951156 0.0817802
550 2 0.327867 0.735931 0.0538971
546 2 0.412732 0.80513 0.08328
28 1 0.503014 0.949769 0.0796236
523 2 0.561446 0.745586 0.0561356
548 2 0.591252 0.827162 0.0913781
572 2 0.524986 0.774599 0.129195
573 2 0.685468 0.000297904 0.103236
74 1 0.680141 0.844907 0.122123
55 1 0.0505633 0.896907 0.107036
534 2 0.827556 0.0207622 0.0860769
69 1 0.0274962 0.8584 0.0561032
574 2 0.885194 0.895025 0.0568367
551 2 0.218982 0.137747 0.155742
555 2 0.106834 0.0795199 0.133206
576 2 0.940518 0.0716143 0.170764
82 1 0.253785 0.088241 0.189219
81 1 0.0747694 0.210655 0.166996
52 1 0.438871 0.149422 0.128586
571 2 0.380363 0.0400659 0.16918
54 1 0.717196 0.199734 0.144737
78 1 0.686772 0.026753 0.142118
83 1 0.550436 0.216467 0.156789
600 2 0.993094 0.986184 0.140441
554 2 0.864737 0.251545 0.132615
598 2 0.977201 0.162308 0.132561
79 1 0.815888 0.17472 0.173625
65 1 0.276882 0.46434 0.118732
556 2 0.235182 0.405485 0.157971
85 1 0.0613164 0.426052 0.168683
56 1 0.292066 0.246635 0.134282
552 2 0.546436 0.34075 0.132053
53 1 0.369249 0.235659 0.176357
57 1 0.396595 0.384553 0.141962
62 1 0.510424 0.483466 0.152754
557 2 0.472482 0.340372 0.176917
92 1 0.671723 0.36895 0.15391
112 1 0.648506 0.283211 0.187027
84 1 0.800357 0.315524 0.182218
60 1 0.935175 0.260778 0.167958
535 2 0.989134 0.322737 0.130574
90 1 0.666149 0.5172 0.140809
94 1 0.862021 0.427094 0.1546
41 1 0.117043 0.552383 0.103211
570 2 0.218084 0.677951 0.125945
590 2 0.185635 0.545306 0.142486
547 2 0.384068 0.70841 0.124054
531 2 0.364165 0.556634 0.138275
91 1 0.307003 0.687206 0.156712
116 1 0.452616 0.592592 0.172704
536 2 0.565113 0.666959 0.148764
68 1 0.7103 0.768028 0.154438
587 2 0.649931 0.613514 0.178302
66 1 0.00995534 0.542955 0.14894
563 2 0.79283 0.59152 0.156324
96 1 0.894823 0.674553 0.134917
541 2 0.0717216 0.694325 0.148411
76 1 0.161329 0.845185 0.132323
566 2 0.216634 0.797312 0.166471
101 1 0.190986 0.967982 0.164267
48 1 0.428265 0.911491 0.147764
567 2 0.32611 0.876163 0.184498
72 1 0.436243 0.768356 0.164432
97 1 0.315889 0.84878 0.127829
93 1 0.612371 0.888241 0.156449
73 1 0.530968 0.986316 0.114191
98 1 0.54488 0.0242565 0.153177
569 2 0.630378 0.981953 0.185264
614 2 0.753476 0.82138 0.186799
44 1 0.839029 0.85409 0.127661
575 2 0.777902 0.863562 0.0916935
125 1 0.846942 0.947142 0.154929
605 2 0.929176 0.92417 0.1887
580 2 0.0154808 0.83587 0.151757
106 1 0.0355496 0.234893 0.250814
581 2 0.227921 0.250858 0.197003
582 2 0.0875345 0.143121 0.207246
110 1 0.973758 0.0782291 0.230323
602 2 0.393781 0.0407832 0.21062
108 1 0.49495 0.111179 0.190357
603 2 0.464799 0.136791 0.23284
128 1 0.330852 0.181644 0.217443
577 2 0.644256 0.136788 0.183323
578 2 0.600901 0.175713 0.222712
103 1 0.529329 0.00143883 0.224364
104 1 0.894527 0.193386 0.248041
604 2 0.922249 0.194073 0.206263
599 2 0.834335 0.0648177 0.200993
579 2 0.787829 0.222142 0.222135
593 2 0.688561 0.0611654 0.218084
623 2 0.74898 0.10835 0.253332
610 2 0.207676 0.429333 0.202577
585 2 0.0651932 0.324997 0.201761
615 2 0.939184 0.439061 0.196959
137 1 0.152486 0.282639 0.231886
140 1 0.0987733 0.434185 0.231725
611 2 0.326334 0.439945 0.238755
586 2 0.420342 0.512987 0.20975
87 1 0.330342 0.364127 0.207263
632 2 0.346727 0.277561 0.243206
583 2 0.460322 0.271169 0.211773
139 1 0.592679 0.419014 0.197905
635 2 0.647365 0.33832 0.229597
109 1 0.812644 0.394477 0.218038
584 2 0.791061 0.456926 0.259645
609 2 0.945661 0.31555 0.228194
595 2 0.134176 0.637832 0.174823
122 1 0.216812 0.74379 0.203317
111 1 0.135718 0.555702 0.207713
561 2 0.308349 0.521484 0.176619
607 2 0.309237 0.588857 0.22688
591 2 0.363303 0.67862 0.194029
613 2 0.431644 0.693059 0.226513
592 2 0.555755 0.551483 0.230526
589 2 0.74065 0.500732 0.188426
67 1 0.565527 0.68961 0.207532
639 2 0.699153 0.504814 0.2305
113 1 0.814393 0.674708 0.199557
588 2 0.968029 0.598252 0.186729
141 1 0.990578 0.578956 0.229386
115 1 0.844264 0.541426 0.219414
146 1 0.845058 0.693836 0.243542
601 2 0.0881275 0.00688882 0.187719
596 2 0.0798614 0.79399 0.188996
102 1 0.192059 0.896064 0.205438
621 2 0.163299 0.84343 0.240386
597 2 0.485765 0.939773 0.190917
622 2 0.366082 0.873228 0.225186
568 2 0.609287 0.829767 0.209001
618 2 0.674339 0.721557 0.235568
123 1 0.746305 0.923438 0.225644
121 1 0.0148159 0.736008 0.219584
120 1 0.934435 0.767181 0.179403
105 1 0.028772 0.896451 0.221135
594 2 0.86682 0.811427 0.216495
606 2 0.169522 0.1567 0.250062
157 1 0.282193 0.19252 0.2838
151 1 0.152725 0.120336 0.291957
107 1 0.322521 0.108737 0.246662
647 2 0.459363 0.0856529 0.275109
133 1 0.419204 0.235104 0.285296
134 1 0.558844 0.288517 0.259738
129 1 0.622906 0.997949 0.264637
628 2 0.601193 0.245267 0.304974
160 1 0.631285 0.139537 0.278037
124 1 0.872905 0.982332 0.231825
126 1 0.98867 0.169653 0.282789
630 2 0.759712 0.00968664 0.288319
132 1 0.259103 0.340419 0.274656
136 1 0.976568 0.42818 0.294235
637 2 0.11011 0.375702 0.270291
657 2 0.137264 0.264779 0.297749
163 1 0.324501 0.622322 0.278836
638 2 0.450859 0.400461 0.273618
119 1 0.598302 0.441942 0.259846
634 2 0.486692 0.407606 0.236176
665 2 0.610246 0.375693 0.29262
135 1 0.74344 0.305153 0.26155
145 1 0.94902 0.443043 0.252376
640 2 0.920341 0.30627 0.278574
161 1 0.792771 0.389042 0.299928
616 2 0.141409 0.66171 0.244743
617 2 0.219348 0.504187 0.270473
641 2 0.0515912 0.724439 0.299972
642 2 0.17631 0.630311 0.291137
636 2 0.056308 0.570971 0.271321
608 2 0.439612 0.562517 0.251252
117 1 0.287983 0.737884 0.243416
148 1 0.465276 0.717423 0.284778
114 1 0.541479 0.669791 0.256024
619 2 0.679497 0.596973 0.260361
143 1 0.593848 0.62367 0.296963
144 1 0.638335 0.801778 0.273552
645 2 0.74761 0.555985 0.293063
166 1 0.889819 0.554173 0.273797
625 2 0.995112 0.708729 0.258485
150 1 0.0472379 0.0359894 0.269783
650 2 0.184986 0.026555 0.224296
172 1 0.0550319 0.888461 0.269267
626 2 0.149225 0.97215 0.296042
152 1 0.268937 0.959087 0.252657
127 1 0.422651 0.982901 0.248815
147 1 0.36126 0.836115 0.262523
672 2 0.178646 0.805217 0.28084
627 2 0.291117 0.0445061 0.284842
130 1 0.792462 0.894139 0.265927
118 1 0.512987 0.826963 0.245444
624 2 0.558049 0.847257 0.303157
649 2 0.92518 0.857033 0.252688
644 2 0.767547 0.718958 0.272912
646 2 0.90011 0.781729 0.287561
175 1 0.911823 0.0197814 0.28612
651 2 0.146228 0.237624 0.341215
652 2 0.245836 0.102944 0.31967
671 2 0.0181465 0.03666 0.313455
677 2 0.150976 0.129351 0.371125
182 1 0.986571 0.249579 0.35784
153 1 0.435991 0.976762 0.305122
653 2 0.476221 0.14157 0.314855
183 1 0.278612 0.17397 0.351553
178 1 0.370843 0.957066 0.353565
164 1 0.607314 0.166668 0.33828
655 2 0.727505 0.121731 0.317066
154 1 0.623356 0.0046052 0.302015
673 2 0.49885 0.0216165 0.342047
131 1 0.797335 0.174363 0.286226
660 2 0.828096 0.266534 0.357806
680 2 0.872839 0.131369 0.327479
612 2 0.197013 0.42555 0.307167
156 1 0.0199991 0.195325 0.323281
662 2 0.200547 0.399053 0.352514
187 1 0.0402827 0.378579 0.328946
158 1 0.336994 0.270915 0.313661
138 1 0.348349 0.492188 0.302056
188 1 0.341234 0.303976 0.350374
663 2 0.473996 0.43003 0.347041
633 2 0.462603 0.387193 0.309075
169 1 0.618264 0.474819 0.319301
165 1 0.732594 0.302091 0.330839
190 1 0.615762 0.346277 0.353292
185 1 0.771494 0.439437 0.337186
661 2 0.905771 0.476647 0.326674
656 2 0.901365 0.306796 0.322819
631 2 0.0820148 0.494498 0.351348
162 1 0.216366 0.648227 0.338529
167 1 0.0950646 0.534653 0.314204
667 2 0.199083 0.784606 0.316483
192 1 0.97931 0.620985 0.337883
142 1 0.379546 0.627054 0.318961
168 1 0.348534 0.744207 0.34545
692 2 0.322 0.481684 0.339335
643 2 0.496177 0.582865 0.343236
173 1 0.51993 0.729154 0.321936
170 1 0.666685 0.683991 0.332751
664 2 0.664841 0.553474 0.356196
193 1 0.589702 0.740715 0.367403
620 2 0.911686 0.638933 0.300707
171 1 0.923245 0.787963 0.324468
195 1 0.77984 0.741549 0.307974
666 2 0.789767 0.614588 0.329234
197 1 0.0387873 0.868759 0.309393
177 1 0.284017 0.928472 0.317062
176 1 0.135001 0.969814 0.338495
696 2 0.0898769 0.749642 0.340111
648 2 0.341205 0.78134 0.300745
198 1 0.424514 0.865051 0.325563
629 2 0.699947 0.992154 0.354008
149 1 0.591426 0.866318 0.343188
670 2 0.736988 0.876617 0.306315
155 1 0.897599 0.946771 0.319815
180 1 0.855048 0.00724538 0.353543
196 1 0.982331 0.911248 0.353156
674 2 0.776511 0.816402 0.34599
681 2 0.0234362 0.20667 0.397644
201 1 0.242548 0.978681 0.38128
675 2 0.0174589 0.102008 0.351987
706 2 0.215169 0.130102 0.405528
700 2 0.0955404 0.00717532 0.396686
208 1 0.404058 0.0916518 0.377079
682 2 0.276516 0.259817 0.390514
679 2 0.692978 0.246445 0.383838
179 1 0.60315 0.0990408 0.374309
204 1 0.704352 0.997653 0.392938
703 2 0.578085 0.00724681 0.411115
678 2 0.439062 0.270938 0.390022
654 2 0.741095 0.138586 0.357139
699 2 0.912965 0.127711 0.378769
212 1 0.127471 0.283856 0.377424
687 2 0.191489 0.423041 0.398271
237 1 0.113396 0.280147 0.429738
710 2 0.00836901 0.350671 0.389837
683 2 0.505102 0.414794 0.384187
688 2 0.343078 0.419014 0.377521
213 1 0.450425 0.536941 0.411162
707 2 0.396086 0.394146 0.412323
658 2 0.473819 0.233339 0.354669
159 1 0.659743 0.403758 0.390067
184 1 0.737988 0.300476 0.418139
659 2 0.825295 0.359212 0.389993
181 1 0.897106 0.290379 0.416996
211 1 0.941806 0.426041 0.360162
686 2 0.0584144 0.544641 0.391089
691 2 0.0754808 0.694888 0.379108
217 1 0.213488 0.52847 0.372943
717 2 0.265196 0.645007 0.409841
218 1 0.381131 0.614498 0.368958
222 1 0.251833 0.691394 0.372854
718 2 0.477038 0.695102 0.397663
189 1 0.548451 0.576724 0.379243
693 2 0.667858 0.710671 0.398773
669 2 0.753074 0.68406 0.366062
690 2 0.77585 0.506879 0.385796
689 2 0.661156 0.551594 0.413307
186 1 0.886835 0.595583 0.37307
191 1 0.935095 0.744897 0.359578
685 2 0.924114 0.491677 0.403357
216 1 0.968885 0.693408 0.407454
247 1 0.121728 0.852441 0.385117
676 2 0.212532 0.839378 0.350124
697 2 0.276766 0.826818 0.396061
698 2 0.507638 0.960958 0.37676
223 1 0.45012 0.798969 0.36655
203 1 0.370045 0.958897 0.402316
194 1 0.75393 0.83081 0.420529
174 1 0.672335 0.861086 0.381746
668 2 0.520567 0.859449 0.404989
199 1 0.856905 0.789858 0.39098
221 1 0.98191 0.889563 0.402279
205 1 0.844343 0.946752 0.386917
231 1 0.108842 0.0567506 0.431959
202 1 0.280666 0.0430058 0.438156
207 1 0.383558 0.121092 0.414038
232 1 0.313987 0.23611 0.425336
708 2 0.419089 0.980441 0.439699
233 1 0.455988 0.147696 0.452804
704 2 0.636905 0.0807236 0.458916
229 1 0.560992 0.160971 0.419472
749 2 0.740863 0.0437396 0.434159
206 1 0.960864 0.0763669 0.425264
209 1 0.807947 0.140876 0.408271
230 1 0.775013 0.204059 0.450531
705 2 0.890241 0.0444591 0.45927
235 1 0.956055 0.219686 0.446205
236 1 0.124693 0.211902 0.463472
711 2 0.0605184 0.443816 0.41914
736 2 0.117585 0.404677 0.459077
712 2 0.270057 0.364902 0.44492
238 1 0.420848 0.469885 0.445135
214 1 0.444001 0.308067 0.436122
684 2 0.566322 0.317368 0.412218
709 2 0.661929 0.410619 0.444727
234 1 0.616571 0.25593 0.451135
215 1 0.783747 0.453756 0.421519
210 1 0.833505 0.347878 0.44254
715 2 0.970754 0.449001 0.44675
695 2 0.136706 0.575635 0.426178
242 1 0.257686 0.522799 0.443229
246 1 0.0518949 0.704896 0.451489
241 1 0.12417 0.55823 0.464287
272 1 0.255431 0.654422 0.467304
716 2 0.408737 0.624025 0.441213
243 1 0.383046 0.750092 0.463426
737 2 0.448299 0.579744 0.477311
714 2 0.621691 0.54171 0.48156
713 2 0.557384 0.546258 0.441593
694 2 0.676433 0.673733 0.43624
244 1 0.548969 0.75397 0.431754
200 1 0.800945 0.626206 0.408034
240 1 0.812561 0.606065 0.445846
220 1 0.954777 0.591604 0.435914
701 2 0.0199816 0.975498 0.469724
720 2 0.123303 0.76477 0.411631
721 2 0.203355 0.91026 0.424502
725 2 0.0389783 0.867817 0.435506
746 2 0.155001 0.832231 0.465389
741 2 0.233105 0.753211 0.438009
722 2 0.307841 0.893264 0.463736
723 2 0.380623 0.780089 0.424798
748 2 0.477589 0.869461 0.462168
224 1 0.605514 0.908413 0.43837
719 2 0.701098 0.799148 0.454202
724 2 0.879509 0.933872 0.428124
225 1 0.890197 0.766553 0.429935
250 1 0.833414 0.861344 0.464619
726 2 0.175925 0.0615647 0.472168
252 1 0.0779353 0.0752085 0.536921
727 2 0.231545 0.129072 0.511465
731 2 0.0799698 0.219541 0.500305
702 2 0.332045 0.0440744 0.470969
228 1 0.375414 0.0895439 0.510469
729 2 0.53187 0.116318 0.5044
255 1 0.75118 0.990662 0.476315
754 2 0.752276 0.0783863 0.526595
259 1 0.693052 0.180735 0.494508
730 2 0.839812 0.140914 0.493916
755 2 0.992192 0.128638 0.473708
799 2 0.966932 0.127876 0.515792
257 1 0.282084 0.202884 0.460093
261 1 0.219374 0.331889 0.480939
265 1 0.0568888 0.461077 0.492137
732 2 0.377452 0.37017 0.475512
733 2 0.357984 0.240725 0.50028
763 2 0.523861 0.387253 0.511592
262 1 0.230611 0.504777 0.494508
728 2 0.548676 0.26143 0.486846
239 1 0.537688 0.410333 0.474298
739 2 0.684747 0.345681 0.482834
284 1 0.634117 0.224849 0.527304
734 2 0.841083 0.312571 0.480521
264 1 0.755602 0.329095 0.515695
735 2 0.00392904 0.311712 0.472367
260 1 0.932163 0.310883 0.508124
245 1 0.783976 0.470203 0.4636
267 1 0.0922173 0.829632 0.502804
266 1 0.117549 0.67706 0.495585
248 1 0.481529 0.75937 0.499249
742 2 0.325666 0.621753 0.500211
263 1 0.378645 0.465315 0.504658
219 1 0.673324 0.687367 0.493036
738 2 0.551238 0.679579 0.466489
269 1 0.651558 0.483725 0.518838
769 2 0.627313 0.758647 0.530665
744 2 0.773609 0.568963 0.496849
740 2 0.928153 0.554619 0.475863
275 1 0.816869 0.713131 0.478868
296 1 0.96076 0.700649 0.495299
770 2 0.947367 0.533468 0.520323
227 1 0.195297 0.943073 0.49487
251 1 0.0467846 0.972181 0.509662
745 2 0.990057 0.819499 0.476025
271 1 0.0101 0.832543 0.533454
793 2 0.187354 0.862283 0.531988
254 1 0.505188 0.0199888 0.477656
747 2 0.269329 0.782766 0.490009
772 2 0.357224 0.910462 0.499974
249 1 0.604923 0.841564 0.484285
253 1 0.479469 0.842357 0.529236
274 1 0.659202 0.985851 0.510555
774 2 0.73883 0.84234 0.506039
226 1 0.881926 0.00137099 0.49578
750 2 0.901985 0.853208 0.504709
276 1 0.0872633 0.203177 0.569608
282 1 0.232305 0.219844 0.582727
751 2 0.169645 0.219186 0.533363
278 1 0.218646 0.102094 0.554495
258 1 0.315895 0.241844 0.543621
283 1 0.367574 0.114636 0.571034
303 1 0.470668 0.00211043 0.568817
778 2 0.486109 0.112709 0.539031
309 1 0.612329 0.0337905 0.548899
285 1 0.790436 0.051935 0.568842
310 1 0.735011 0.191814 0.568608
780 2 0.935544 0.17335 0.559699
776 2 0.998689 0.323911 0.58294
756 2 0.167968 0.34821 0.561978
760 2 0.113341 0.356882 0.518263
758 2 0.445566 0.29483 0.533976
288 1 0.408855 0.244897 0.589099
757 2 0.261988 0.36996 0.516322
762 2 0.333376 0.43422 0.54623
764 2 0.596904 0.343128 0.548039
289 1 0.579639 0.210073 0.574637
290 1 0.749074 0.353198 0.553607
788 2 0.47731 0.374662 0.572876
789 2 0.628255 0.482238 0.564189
256 1 0.0254555 0.295121 0.544815
281 1 0.846724 0.285965 0.582247
759 2 0.841434 0.217745 0.533008
765 2 0.89513 0.38229 0.554821
761 2 0.135835 0.554821 0.522971
291 1 0.0383745 0.451606 0.545408
292 1 0.187473 0.515668 0.567689
766 2 0.0483885 0.684035 0.529482
767 2 0.21313 0.676303 0.555438
817 2 0.20836 0.701876 0.592709
293 1 0.330543 0.602156 0.537566
323 1 0.384708 0.671412 0.599181
268 1 0.487129 0.474308 0.540076
743 2 0.517523 0.611154 0.50975
319 1 0.50555 0.557429 0.578348
294 1 0.607912 0.594456 0.541683
270 1 0.791147 0.497017 0.53173
300 1 0.818635 0.697616 0.524157
791 2 0.934944 0.576225 0.555515
790 2 0.794062 0.492111 0.579597
771 2 0.148199 0.967994 0.55493
298 1 0.125204 0.7967 0.564577
752 2 0.309973 0.991769 0.534395
273 1 0.340636 0.770811 0.528366
753 2 0.511486 0.976134 0.51857
322 1 0.299829 0.791345 0.572757
773 2 0.449481 0.809976 0.568874
279 1 0.751656 0.933851 0.543226
768 2 0.487482 0.675799 0.549094
299 1 0.74727 0.776743 0.562645
779 2 0.607316 0.880741 0.557908
325 1 0.697064 0.896301 0.590243
775 2 0.882921 0.00684566 0.533082
297 1 0.897831 0.755369 0.559504
796 2 0.989958 0.970141 0.556601
295 1 0.763778 0.621116 0.554518
800 2 0.84815 0.902474 0.575952
277 1 0.135739 0.0471243 0.584028
802 2 0.092639 0.118451 0.643154
327 1 0.0788329 0.00254311 0.618362
781 2 0.0667071 0.216619 0.605999
783 2 0.486797 0.0889324 0.600667
777 2 0.379835 0.0153638 0.616234
304 1 0.512449 0.107281 0.637796
808 2 0.348433 0.179545 0.624472
308 1 0.629073 0.028441 0.587387
804 2 0.63899 0.177466 0.615543
809 2 0.519211 0.256877 0.623353
301 1 0.929799 0.101404 0.641273
280 1 0.75519 0.0141849 0.610555
784 2 0.82504 0.172575 0.614845
321 1 0.963645 0.042819 0.592942
331 1 0.0832963 0.35371 0.631833
312 1 0.218238 0.419378 0.639855
286 1 0.0843493 0.433234 0.595467
782 2 0.265574 0.383537 0.59262
307 1 0.206919 0.282633 0.615189
787 2 0.472216 0.44569 0.604677
314 1 0.612008 0.327545 0.599768
313 1 0.636087 0.495509 0.615739
340 1 0.745542 0.426409 0.654982
785 2 0.7574 0.38268 0.610247
315 1 0.825572 0.516061 0.624685
810 2 0.90783 0.29728 0.615999
311 1 0.951102 0.511656 0.594711
840 2 0.962152 0.435305 0.632929
287 1 0.0718571 0.620356 0.569615
317 1 0.228893 0.538306 0.609554
316 1 0.106132 0.519016 0.635529
342 1 0.104158 0.693863 0.622692
792 2 0.35182 0.512229 0.58161
818 2 0.291839 0.722184 0.627032
338 1 0.384222 0.530308 0.641276
794 2 0.653966 0.630086 0.583992
814 2 0.700559 0.66297 0.622387
813 2 0.525599 0.622105 0.629929
320 1 0.818082 0.633507 0.593227
815 2 0.833276 0.684458 0.634234
816 2 0.973418 0.618175 0.622304
797 2 0.966219 0.688462 0.592327
798 2 0.162787 0.887102 0.59322
302 1 0.223357 0.133029 0.61418
821 2 0.955377 0.839196 0.60678
347 1 0.118167 0.835773 0.630583
819 2 0.464829 0.7883 0.62607
822 2 0.28838 0.978819 0.577576
823 2 0.491599 0.894378 0.596853
348 1 0.299995 0.867017 0.611991
324 1 0.593094 0.781037 0.583683
824 2 0.52484 0.930437 0.631621
349 1 0.674194 0.848809 0.625947
326 1 0.899866 0.967259 0.622027
795 2 0.791491 0.784039 0.602543
346 1 0.973397 0.780282 0.642437
820 2 0.828845 0.848987 0.643924
328 1 0.23327 0.961659 0.637705
332 1 0.216635 0.169608 0.692345
357 1 0.00670287 0.164054 0.679555
803 2 0.255472 0.129666 0.654911
334 1 0.547651 0.0320658 0.671476
849 2 0.660872 0.0796885 0.647876
335 1 0.51099 0.205375 0.670376
829 2 0.403607 0.167832 0.699122
306 1 0.717249 0.250387 0.640284
826 2 0.884294 0.261936 0.662248
305 1 0.814619 0.00537649 0.652576
850 2 0.728897 0.00675602 0.690059
356 1 0.855091 0.130858 0.683845
801 2 0.028455 0.307469 0.676748
786 2 0.142048 0.398783 0.69167
806 2 0.0255455 0.46458 0.668861
832 2 0.183886 0.283484 0.662053
837 2 0.434303 0.453669 0.671539
807 2 0.263897 0.494273 0.676661
333 1 0.346096 0.337095 0.62245
364 1 0.299362 0.331374 0.691553
833 2 0.398591 0.291301 0.657649
339 1 0.580539 0.3862 0.638795
834 2 0.618814 0.464224 0.673448
835 2 0.636191 0.299574 0.672153
359 1 0.513227 0.332181 0.695416
336 1 0.91389 0.383357 0.686602
812 2 0.128917 0.562961 0.674113
836 2 0.120782 0.806116 0.681321
862 2 0.202616 0.636049 0.699733
318 1 0.231 0.594835 0.645278
838 2 0.359506 0.621726 0.69461
343 1 0.369528 0.691115 0.659176
839 2 0.738367 0.582064 0.663563
344 1 0.520944 0.63948 0.670969
844 2 0.535878 0.526706 0.701397
365 1 0.748623 0.443993 0.695056
811 2 0.899241 0.566597 0.654237
341 1 0.0204485 0.680467 0.671584
366 1 0.823618 0.745484 0.675
842 2 0.267903 0.818978 0.659661
846 2 0.999028 0.934892 0.653333
847 2 0.164052 0.801262 0.717223
372 1 0.142205 0.973486 0.672984
841 2 0.0326802 0.865278 0.704835
329 1 0.39286 0.919541 0.650343
843 2 0.384794 0.803433 0.686487
827 2 0.358394 0.961228 0.685352
828 2 0.466123 0.699204 0.711364
345 1 0.585737 0.749082 0.653156
350 1 0.69077 0.909734 0.657924
374 1 0.568538 0.870477 0.677504
825 2 0.943806 0.826363 0.676576
845 2 0.730658 0.846301 0.6906
851 2 0.0750488 0.249819 0.706354
852 2 0.127585 0.0793425 0.715587
377 1 0.221798 0.0833018 0.754892
881 2 0.202457 0.29622 0.725349
900 2 0.0474565 0.0800882 0.754809
358 1 0.314062 0.171231 0.730069
355 1 0.556764 0.127544 0.707156
353 1 0.451062 0.249376 0.733099
330 1 0.672728 0.165133 0.687602
375 1 0.584348 0.962343 0.710017
855 2 0.657681 0.0814805 0.731277
879 2 0.765014 0.00434656 0.746244
385 1 0.7284 0.237153 0.764335
351 1 0.948551 0.127374 0.718608
830 2 0.793072 0.141698 0.724086
381 1 0.0579561 0.228186 0.746891
831 2 0.0484283 0.39055 0.726133
363 1 0.254149 0.470602 0.738889
387 1 0.107282 0.505133 0.772271
389 1 0.446868 0.396101 0.746056
889 2 0.610381 0.527985 0.752722
360 1 0.612633 0.251831 0.720349
805 2 0.91669 0.270296 0.712765
337 1 0.89934 0.477873 0.71758
361 1 0.751869 0.278692 0.702714
859 2 0.724854 0.370539 0.749568
384 1 0.908345 0.340399 0.745095
362 1 0.0333763 0.538163 0.706204
368 1 0.153515 0.567522 0.729227
861 2 0.031266 0.693428 0.712966
386 1 0.996473 0.547417 0.742832
886 2 0.0775413 0.698366 0.75651
867 2 0.213747 0.801288 0.753761
369 1 0.431405 0.533941 0.733113
848 2 0.305312 0.692227 0.730353
863 2 0.340919 0.473371 0.708632
393 1 0.328688 0.582087 0.758525
898 2 0.342054 0.772661 0.768481
864 2 0.611592 0.408335 0.719293
370 1 0.744197 0.603775 0.700397
868 2 0.599995 0.649351 0.727989
860 2 0.896267 0.667856 0.70382
865 2 0.903461 0.709469 0.739354
870 2 0.735832 0.751606 0.720229
390 1 0.767407 0.517182 0.735576
890 2 0.877929 0.479036 0.768952
872 2 0.233672 0.968383 0.711265
367 1 0.15688 0.9586 0.745174
371 1 0.999187 0.828577 0.746093
373 1 0.318018 0.847647 0.721372
873 2 0.370758 0.00483418 0.727776
379 1 0.471612 0.852977 0.715779
423 1 0.403128 0.892518 0.75394
869 2 0.606341 0.863967 0.738989
874 2 0.596491 0.739155 0.697548
400 1 0.472079 0.671385 0.751811
380 1 0.534023 0.992349 0.748138
352 1 0.00151293 0.0173396 0.684536
875 2 0.874578 0.836142 0.718715
871 2 0.990997 0.971724 0.732063
376 1 0.840303 0.987719 0.712321
396 1 0.783446 0.8571 0.761966
383 1 0.160168 0.174092 0.78547
880 2 0.992023 0.135367 0.792986
402 1 0.0687613 0.122461 0.826968
403 1 0.245391 0.963404 0.814032
354 1 0.401745 0.0775369 0.760823
882 2 0.27351 0.233562 0.763156
382 1 0.310398 0.0465783 0.79133
883 2 0.381662 0.17207 0.81134
853 2 0.661277 0.0789022 0.769663
924 2 0.534966 0.178513 0.797589
876 2 0.89805 0.0656456 0.76551
922 2 0.949347 0.982443 0.809185
405 1 0.779358 0.146529 0.800397
435 1 0.897544 0.218247 0.763322
858 2 0.177098 0.358585 0.763988
856 2 0.0133775 0.395452 0.770997
411 1 0.128094 0.411521 0.804097
407 1 0.0679513 0.267701 0.796314
857 2 0.319848 0.422354 0.773869
854 2 0.413194 0.295165 0.779221
934 2 0.483671 0.311883 0.82671
412 1 0.383473 0.414535 0.814987
388 1 0.571845 0.362665 0.790478
413 1 0.250133 0.29715 0.810721
909 2 0.560367 0.188954 0.758703
888 2 0.629988 0.385042 0.833612
414 1 0.701464 0.486429 0.78353
410 1 0.709291 0.301351 0.807539
440 1 0.753207 0.450644 0.817713
884 2 0.837611 0.360932 0.786384
915 2 0.917994 0.445702 0.819856
885 2 0.98721 0.560215 0.792792
866 2 0.200295 0.667649 0.781938
422 1 0.0631661 0.702688 0.798714
893 2 0.337203 0.673636 0.800889
892 2 0.450421 0.533241 0.779116
406 1 0.25783 0.523998 0.795329
919 2 0.491109 0.722297 0.790344
394 1 0.631765 0.633099 0.784486
399 1 0.660473 0.762546 0.763489
887 2 0.577277 0.51928 0.815214
391 1 0.814543 0.633983 0.764864
395 1 0.843059 0.589568 0.805081
895 2 0.939278 0.726579 0.774863
398 1 0.123057 0.847946 0.777454
897 2 0.11854 0.0249866 0.798344
428 1 0.0660289 0.874763 0.810359
397 1 0.281888 0.922453 0.771771
378 1 0.536859 0.0204656 0.792994
430 1 0.393576 0.873729 0.797451
404 1 0.535345 0.863182 0.774371
899 2 0.719386 0.890931 0.815579
425 1 0.665071 0.936094 0.779755
420 1 0.755218 0.75106 0.803678
896 2 0.895332 0.852816 0.788191
920 2 0.784964 0.99907 0.785747
877 2 0.220495 0.137692 0.820062
447 1 0.10409 0.121306 0.902182
431 1 0.165775 0.0713998 0.868174
426 1 0.0812537 0.210228 0.864046
878 2 0.300884 0.0435957 0.849583
409 1 0.380853 0.236398 0.851494
427 1 0.392727 0.120633 0.880778
434 1 0.465343 0.107627 0.840192
908 2 0.257 0.169449 0.87217
904 2 0.774968 0.186669 0.835861
949 2 0.643787 0.0504562 0.823298
964 2 0.592522 0.204378 0.834982
417 1 0.9241 0.129628 0.833863
450 1 0.793896 0.0202302 0.826282
401 1 0.993725 0.993146 0.84493
429 1 0.723667 0.150181 0.878153
416 1 0.0482419 0.434393 0.841077
912 2 0.00138953 0.277004 0.835706
418 1 0.240315 0.461271 0.830815
937 2 0.148036 0.310145 0.837305
436 1 0.990418 0.334192 0.877122
439 1 0.322223 0.451045 0.871966
933 2 0.620481 0.35333 0.871829
939 2 0.695282 0.54387 0.846582
935 2 0.781337 0.348875 0.843682
894 2 0.515954 0.490979 0.848858
469 1 0.734874 0.453005 0.880892
931 2 0.868611 0.21138 0.869895
930 2 0.898328 0.268917 0.81241
944 2 0.882779 0.474268 0.857403
891 2 0.101208 0.547017 0.819181
940 2 0.174055 0.560586 0.865417
473 1 0.102732 0.693189 0.832155
392 1 0.222614 0.611014 0.826527
443 1 0.427085 0.565201 0.817439
917 2 0.278311 0.759787 0.84771
419 1 0.433137 0.67629 0.87568
942 2 0.330153 0.583276 0.85574
415 1 0.67511 0.648479 0.8231
914 2 0.673691 0.668693 0.86206
938 2 0.535369 0.65265 0.849808
910 2 0.975466 0.617928 0.848515
911 2 0.92946 0.71859 0.823852
441 1 0.00700417 0.530081 0.885328
445 1 0.819733 0.6243 0.840732
945 2 0.83984 0.581838 0.877585
946 2 0.902102 0.738034 0.87166
921 2 0.0138714 0.80747 0.84777
499 1 0.181092 0.929013 0.856483
926 2 0.0476854 0.908705 0.88437
424 1 0.211636 0.81368 0.807246
449 1 0.421793 0.768276 0.824735
902 2 0.325412 0.90532 0.855494
903 2 0.439573 0.961696 0.887878
923 2 0.445748 0.927697 0.829449
444 1 0.559381 0.822648 0.819079
948 2 0.476073 0.822589 0.861252
446 1 0.569229 0.959335 0.851126
421 1 0.872763 0.877448 0.831647
925 2 0.74722 0.822252 0.848826
941 2 0.715016 0.99542 0.866018
906 2 0.094235 0.279342 0.907256
457 1 0.112218 0.181035 0.941557
451 1 0.982797 0.0625579 0.924407
453 1 0.268756 0.0256994 0.893301
907 2 0.237678 0.163456 0.913895
478 1 0.42052 0.0569734 0.916479
974 2 0.550346 0.0498986 0.889515
928 2 0.542921 0.195428 0.867224
459 1 0.670928 0.155854 0.924115
905 2 0.961483 0.172937 0.896897
481 1 0.824259 0.186839 0.919146
950 2 0.0293237 0.0570438 0.87736
975 2 0.773641 0.0253557 0.908447
901 2 0.227976 0.311669 0.879236
408 1 0.130329 0.393645 0.867145
461 1 0.0244551 0.415537 0.915703
438 1 0.171303 0.447472 0.904293
433 1 0.366228 0.264795 0.892371
913 2 0.45523 0.342981 0.869119
958 2 0.335103 0.414686 0.913636
460 1 0.737845 0.296359 0.892597
464 1 0.606457 0.283883 0.953982