ITEM: TIMESTEP
9940
ITEM: NUMBER OF ATOMS
1000
ITEM: BOX BOUNDS pp pp pp
0.0000000000000000e+00 6.2996052494743662e+00
0.0000000000000000e+00 6.2996052494743662e+00
0.0000000000000000e+00 2.5198420997897465e+01
ITEM: ATOMS id type xs ys zs
11 1 0.12768 0.11409 0.0552446
952 2 0.168177 0.202456 0.00527964
46 1 0.069421 0.0688043 0.0117383
101 1 0.176007 0.117463 0.0915819
1 1 0.984133 0.10042 0.0947641
13 1 0.292852 0.0907814 0.0192301
526 2 0.437721 0.22413 0.0189736
489 1 0.264977 0.314805 0.0183858
512 2 0.53103 0.375196 0.988709
504 2 0.716446 0.219839 0.0150502
529 2 0.555878 0.208084 0.0504943
12 1 0.628577 0.106925 0.0260736
477 1 0.89554 0.260144 0.00785996
982 2 0.917452 0.154775 0.0608937
544 2 0.843378 0.106818 0.026523
482 1 0.179893 0.32031 0.981106
528 2 0.188614 0.27294 0.05068
510 2 0.0986395 0.348615 0.0156394
980 2 0.352636 0.425087 0.991196
957 2 0.119087 0.539918 0.0854167
524 2 0.447203 0.551759 0.0464674
63 1 0.417585 0.358432 0.0268059
987 2 0.170532 0.430921 0.0439056
506 2 0.538686 0.360516 0.0510868
485 1 0.637958 0.480842 0.0422375
58 1 0.683931 0.341603 0.0385724
61 1 0.961592 0.440929 0.0205867
977 2 0.97056 0.304992 0.0428042
487 1 0.797106 0.42271 0.0167486
963 2 0.0827342 0.531988 0.0284797
962 2 0.907933 0.570582 0.0109908
997 2 0.094938 0.751829 0.0345066
532 2 0.00333319 0.481596 0.0593027
86 1 0.996545 0.637315 0.0483879
927 2 0.290097 0.524522 0.0204859
517 2 0.278431 0.70098 0.0763842
19 1 0.241661 0.659767 0.0110225
49 1 0.0892973 0.659055 0.993254
33 1 0.757591 0.640859 0.0284175
989 2 0.61806 0.608432 0.0145963
18 1 0.400306 0.729405 0.0454508
516 2 0.697412 0.8103 0.0671757
545 2 0.863411 0.738298 0.0419092
520 2 0.784586 0.6658 0.0673464
961 2 0.850497 0.523682 0.0436734
508 2 0.804075 0.570519 0.970078
31 1 0.804259 0.701806 0.993985
936 2 0.911805 0.842148 0.0181562
967 2 0.0607984 0.965184 0.0578715
21 1 0.0741826 0.898835 0.0200707
17 1 0.462899 0.0190795 0.0255825
9 1 0.368416 0.966562 0.0478001
918 2 0.213394 0.983531 0.0368734
494 1 0.354584 0.766958 0.00344194
24 1 0.468774 0.879894 0.0134427
95 1 0.731931 0.842147 0.0293668
29 1 0.608403 0.990572 0.99837
548 2 0.620093 0.975824 0.0433276
534 2 0.803578 0.00922332 0.0533407
507 2 0.779399 0.986315 0.0113628
100 1 0.938419 0.979119 0.035298
985 2 0.0589593 0.24682 0.079935
80 1 0.0847038 0.172709 0.116798
44 1 0.0896294 0.986263 0.0959466
52 1 0.25876 0.247539 0.0854237
28 1 0.351159 0.153739 0.0574588
552 2 0.425078 0.264678 0.0686919
560 2 0.371348 0.129756 0.103215
600 2 0.510363 0.107463 0.0856437
573 2 0.76627 0.179697 0.0519945
34 1 0.911672 0.197707 0.131805
521 2 0.652724 0.203372 0.0828188
575 2 0.950914 0.954436 0.0837634
71 1 0.823243 0.3128 0.0491768
59 1 0.870937 0.974546 0.113178
565 2 0.800554 0.134881 0.098027
598 2 0.00576746 0.311176 0.112884
35 1 0.786824 0.280041 0.0951139
85 1 0.122841 0.376653 0.0778057
77 1 0.157216 0.310669 0.114597
7 1 0.316448 0.353383 0.0591037
56 1 0.273781 0.548331 0.0709226
551 2 0.405249 0.460697 0.0796331
73 1 0.68971 0.381565 0.0780546
558 2 0.546891 0.341303 0.0898775
50 1 0.691998 0.273838 0.121932
981 2 0.840929 0.412033 0.0793762
533 2 0.821073 0.445258 0.120085
65 1 0.181277 0.629585 0.0461257
525 2 0.178804 0.822362 0.0648617
10 1 0.0829792 0.672688 0.105615
64 1 0.127781 0.461984 0.115054
550 2 0.222653 0.721952 0.124189
538 2 0.442152 0.559581 0.116401
23 1 0.356271 0.837787 0.069861
547 2 0.23376 0.567748 0.118172
523 2 0.438503 0.615843 0.078747
998 2 0.624687 0.635648 0.0602544
559 2 0.549082 0.753809 0.0838796
519 2 0.590109 0.495845 0.0802087
40 1 0.879425 0.57198 0.084775
511 2 0.713678 0.550223 0.0911357
15 1 0.732124 0.679815 0.102249
41 1 0.973117 0.464849 0.104023
70 1 0.969951 0.804908 0.0814539
39 1 0.0144519 0.851134 0.116039
546 2 0.1988 0.859784 0.104425
37 1 0.259881 0.824732 0.0312697
57 1 0.245836 0.965874 0.0773275
542 2 0.355439 0.88314 0.108646
498 1 0.399586 0.00402169 0.0881557
38 1 0.422546 0.735117 0.104697
571 2 0.532429 0.863816 0.0573785
27 1 0.619113 0.0220383 0.0763234
543 2 0.500698 0.886205 0.0941912
549 2 0.842766 0.863858 0.0647759
502 2 0.91403 0.700531 0.109639
530 2 0.889373 0.980307 0.187022
96 1 0.748179 0.920229 0.0883943
555 2 0.229374 0.998987 0.114029
26 1 0.0186703 0.274505 0.15279
566 2 0.171846 0.01558 0.148164
580 2 0.131394 0.0659162 0.198072
83 1 0.288003 0.255346 0.122726
48 1 0.48513 0.0271173 0.116397
53 1 0.348067 0.0109455 0.136894
87 1 0.389702 0.395096 0.160174
125 1 0.415555 0.315786 0.106292
581 2 0.265654 0.414106 0.0940092
503 2 0.667786 0.0860879 0.120502
599 2 0.438493 0.183481 0.143775
536 2 0.627812 0.0542169 0.16862
554 2 0.992998 0.0997296 0.161741
60 1 0.843695 0.0458168 0.150294
82 1 0.139413 0.152459 0.164065
590 2 0.136239 0.369056 0.152869
561 2 0.281621 0.276848 0.164593
54 1 0.987747 0.37417 0.186888
564 2 0.315711 0.434003 0.127629
556 2 0.484603 0.51723 0.153137
632 2 0.265138 0.425756 0.18003
78 1 0.503535 0.380458 0.131511
527 2 0.540598 0.203119 0.114275
62 1 0.701206 0.413259 0.141825
99 1 0.726294 0.184112 0.152783
604 2 0.835927 0.331354 0.153882
89 1 0.992904 0.427845 0.143507
14 1 0.811241 0.544469 0.168296
42 1 0.122599 0.84378 0.142708
553 2 0.0971933 0.646914 0.14159
595 2 0.242748 0.550176 0.159611
587 2 0.00913003 0.743271 0.163227
91 1 0.356809 0.679794 0.142305
570 2 0.5212 0.698459 0.159715
509 2 0.751575 0.573887 0.128075
531 2 0.586582 0.515739 0.121127
537 2 0.575753 0.678362 0.118271
116 1 0.639824 0.560593 0.153728
66 1 0.928417 0.567602 0.126041
88 1 0.707082 0.709886 0.143074
576 2 0.00682826 0.977927 0.136879
98 1 0.211759 0.707308 0.170192
105 1 0.0861045 0.907293 0.176846
541 2 0.266176 0.879213 0.152399
97 1 0.385374 0.796146 0.173634
578 2 0.44896 0.94629 0.165181
597 2 0.480959 0.842162 0.133831
92 1 0.584014 0.964471 0.140756
577 2 0.653139 0.811239 0.115176
74 1 0.464424 0.101341 0.182649
513 2 0.844867 0.825782 0.108289
540 2 0.909469 0.868254 0.145995
69 1 0.729992 0.93231 0.168131
539 2 0.745096 0.925158 0.130943
601 2 0.014311 0.170105 0.201246
128 1 0.0486111 0.112237 0.234726
93 1 0.286173 0.130185 0.152165
603 2 0.19708 0.114324 0.230884
583 2 0.332502 0.97701 0.195456
157 1 0.473721 0.262172 0.1828
134 1 0.682805 0.0820682 0.223891
579 2 0.794227 0.0443194 0.245537
68 1 0.77452 0.083042 0.181324
110 1 0.606666 0.176129 0.190918
588 2 0.838492 0.904739 0.250014
569 2 0.846329 0.174623 0.233082
667 2 0.988108 0.95075 0.257226
535 2 0.138239 0.298375 0.188323
585 2 0.998333 0.420526 0.231783
107 1 0.252974 0.240046 0.214751
582 2 0.105354 0.504153 0.175569
111 1 0.105999 0.640171 0.199019
112 1 0.570712 0.402329 0.171289
610 2 0.287242 0.118691 0.191606
611 2 0.36559 0.334985 0.205026
79 1 0.582041 0.240501 0.149889
586 2 0.572116 0.239839 0.222998
76 1 0.702612 0.320628 0.179177
557 2 0.680407 0.479713 0.194072
81 1 0.91136 0.304608 0.218093
150 1 0.889025 0.221168 0.174332
671 2 0.686332 0.366042 0.22565
84 1 0.819173 0.412309 0.1862
104 1 0.821068 0.448223 0.224
109 1 0.760202 0.215517 0.202572
591 2 0.267773 0.572573 0.205853
122 1 0.314737 0.71213 0.201853
607 2 0.554535 0.528587 0.233285
141 1 0.404595 0.584981 0.176916
72 1 0.553815 0.560205 0.185402
617 2 0.408697 0.479649 0.201881
613 2 0.473528 0.658331 0.210829
562 2 0.511218 0.838268 0.18995
67 1 0.623281 0.694051 0.184057
593 2 0.548058 0.831032 0.238262
90 1 0.858489 0.695079 0.148226
635 2 0.787954 0.606015 0.21088
589 2 0.614762 0.827816 0.157084
94 1 0.979534 0.578573 0.162528
615 2 0.93857 0.522173 0.200983
108 1 0.0831743 0.795774 0.199634
596 2 0.23949 0.848663 0.193286
117 1 0.0517178 0.947195 0.218172
567 2 0.212728 0.939715 0.221782
622 2 0.192165 0.720992 0.22347
118 1 0.369613 0.853361 0.217324
572 2 0.597781 0.986184 0.19866
139 1 0.757451 0.718449 0.183904
144 1 0.660146 0.84063 0.197346
55 1 0.783102 0.928481 0.208873
605 2 0.920231 0.0397101 0.221346
113 1 0.796859 0.788403 0.220869
563 2 0.880011 0.818935 0.184866
102 1 0.18263 0.977725 0.261484
152 1 0.0850656 0.945679 0.28965
172 1 0.978516 0.268349 0.269972
140 1 0.0605309 0.275836 0.231114
163 1 0.312962 0.0635696 0.272774
602 2 0.226074 0.214748 0.26756
153 1 0.409993 0.088994 0.244735
201 1 0.428206 0.203455 0.287098
127 1 0.532346 0.0889106 0.217573
177 1 0.473296 0.0658717 0.27932
647 2 0.680692 0.929926 0.234767
131 1 0.594122 0.0920119 0.255351
124 1 0.699562 0.212697 0.244607
151 1 0.813641 0.196545 0.275047
175 1 0.976884 0.142726 0.290247
640 2 0.663312 0.324048 0.287475
614 2 0.886055 0.0178622 0.28541
675 2 0.397982 0.512243 0.245018
145 1 0.0834004 0.361566 0.264215
651 2 0.257102 0.422649 0.217081
626 2 0.346869 0.275345 0.253667
638 2 0.40037 0.169029 0.212058
142 1 0.350049 0.602324 0.273449
612 2 0.491994 0.364051 0.292253
114 1 0.488538 0.540777 0.286394
608 2 0.466551 0.379494 0.232883
138 1 0.582897 0.397682 0.255585
137 1 0.568078 0.226709 0.26473
637 2 0.653602 0.468814 0.293891
634 2 0.744984 0.437291 0.258343
665 2 0.689614 0.569732 0.246822
623 2 0.834944 0.318917 0.250115
119 1 0.895304 0.478251 0.266972
120 1 0.11209 0.662437 0.254623
166 1 0.119426 0.533393 0.274538
606 2 0.101739 0.531664 0.223596
146 1 0.237767 0.575177 0.24363
636 2 0.229879 0.422865 0.251195
616 2 0.341524 0.688116 0.237858
592 2 0.637845 0.69301 0.2249
619 2 0.391662 0.612159 0.308516
115 1 0.618236 0.630754 0.278459
670 2 0.490173 0.66634 0.247826
609 2 0.862235 0.698128 0.250493
594 2 0.898887 0.670962 0.190272
639 2 0.710157 0.737697 0.298844
135 1 0.95844 0.563066 0.240082
618 2 0.0177626 0.703939 0.226421
121 1 0.121695 0.783374 0.284221
648 2 0.932322 0.84934 0.220039
642 2 0.0909779 0.836431 0.250292
621 2 0.948505 0.808721 0.265432
176 1 0.187669 0.0588318 0.301966
624 2 0.256477 0.73929 0.283024
672 2 0.245436 0.809642 0.251541
696 2 0.28565 0.905415 0.289547
673 2 0.438333 0.921576 0.290248
568 2 0.340584 0.926666 0.252665
103 1 0.423399 0.796929 0.259553
123 1 0.696229 0.745089 0.255033
625 2 0.819296 0.828931 0.282653
646 2 0.107568 0.112871 0.267892
657 2 0.1864 0.370647 0.347661
207 1 0.143055 0.99156 0.339894
197 1 0.275645 0.201881 0.310132
183 1 0.554192 0.230235 0.313307
706 2 0.232387 0.12054 0.343625
231 1 0.332873 0.0247235 0.311327
147 1 0.611427 0.996474 0.296439
627 2 0.644571 0.10493 0.33183
133 1 0.647295 0.262806 0.347795
126 1 0.72132 0.242904 0.315343
182 1 0.134427 0.20813 0.334014
180 1 0.885211 0.104778 0.318829
700 2 0.0181226 0.0312762 0.319041
106 1 0.0298196 0.322209 0.321987
187 1 0.30769 0.254023 0.352561
650 2 0.355472 0.436344 0.287193
662 2 0.378609 0.312383 0.315965
136 1 0.353295 0.44315 0.356232
158 1 0.603375 0.388133 0.325318
643 2 0.562236 0.607813 0.315603
664 2 0.668598 0.383245 0.373523
652 2 0.893146 0.290692 0.303629
653 2 0.682077 0.125155 0.284484
161 1 0.78005 0.394575 0.309684
699 2 0.857493 0.347843 0.344686
661 2 0.203005 0.356358 0.289094
645 2 0.105408 0.525463 0.337387
171 1 0.26715 0.60098 0.34134
641 2 0.114247 0.688673 0.313587
148 1 0.458416 0.468022 0.321481
167 1 0.286136 0.459282 0.32472
143 1 0.428978 0.560492 0.347016
168 1 0.245711 0.587078 0.303191
198 1 0.452892 0.724332 0.335107
129 1 0.764634 0.642779 0.32028
169 1 0.79194 0.59033 0.281107
170 1 0.626117 0.722377 0.329177
584 2 0.0135485 0.479643 0.307705
620 2 0.978546 0.655406 0.282885
130 1 0.859442 0.506513 0.325497
191 1 0.974108 0.618053 0.317507
691 2 0.265622 0.914492 0.3365
247 1 0.154482 0.864761 0.315604
649 2 0.99977 0.821457 0.306911
697 2 0.311737 0.762327 0.314995
630 2 0.513113 0.72593 0.292955
154 1 0.572881 0.865559 0.323609
164 1 0.611043 0.842845 0.278696
149 1 0.528416 0.942841 0.260388
628 2 0.715332 0.894083 0.306173
160 1 0.726517 0.979496 0.271874
155 1 0.862834 0.924717 0.31486
629 2 0.878857 0.728853 0.310785
196 1 0.0362352 0.88664 0.344364
212 1 0.168688 0.0957519 0.398031
682 2 0.286505 0.0110276 0.370154
677 2 0.049384 0.0851209 0.360578
736 2 0.151445 0.240392 0.373321
633 2 0.509151 0.116496 0.36047
188 1 0.316001 0.145365 0.392733
678 2 0.411332 0.178169 0.332462
658 2 0.493195 0.0456706 0.319724
655 2 0.79063 0.0304267 0.346938
190 1 0.655695 0.948765 0.356933
165 1 0.666958 0.10663 0.370366
683 2 0.418041 0.044177 0.397591
185 1 0.812826 0.186845 0.343874
680 2 0.973682 0.234012 0.349096
679 2 0.912053 0.105198 0.363653
654 2 0.942545 0.948843 0.371026
156 1 0.0823077 0.546887 0.388632
132 1 0.215878 0.486406 0.369792
687 2 0.0193979 0.367627 0.364318
688 2 0.126907 0.39162 0.391514
686 2 0.469719 0.308134 0.355637
213 1 0.317933 0.322222 0.386086
162 1 0.413111 0.477455 0.390959
217 1 0.536354 0.452365 0.359039
692 2 0.471092 0.30775 0.401112
189 1 0.58215 0.229943 0.38136
669 2 0.560107 0.418474 0.403174
184 1 0.768329 0.221664 0.381344
656 2 0.91209 0.238389 0.389488
693 2 0.839509 0.406227 0.384077
244 1 0.653547 0.522465 0.345107
710 2 0.963461 0.396332 0.413306
192 1 0.143108 0.466104 0.438113
222 1 0.120482 0.633474 0.423601
631 2 0.365396 0.622193 0.382569
203 1 0.243449 0.531662 0.405083
223 1 0.309957 0.740612 0.353316
193 1 0.357968 0.655517 0.418453
644 2 0.739715 0.672622 0.363273
173 1 0.527947 0.628119 0.372034
195 1 0.777804 0.835052 0.350475
663 2 0.637786 0.57271 0.421435
723 2 0.652754 0.680045 0.392444
666 2 0.976789 0.533856 0.359316
199 1 0.923762 0.741074 0.353964
186 1 0.892485 0.533336 0.405453
200 1 0.909631 0.793995 0.393691
194 1 0.810724 0.54318 0.36281
216 1 0.0741537 0.658264 0.356052
220 1 0.200947 0.687124 0.384237
720 2 0.151381 0.793893 0.34988
221 1 0.233326 0.835018 0.380746
745 2 0.169505 0.775883 0.418279
725 2 0.319869 0.793456 0.410866
178 1 0.40948 0.875554 0.327419
202 1 0.382221 0.891099 0.375805
702 2 0.415009 2.87569e-06 0.350143
676 2 0.568223 0.805454 0.363017
698 2 0.514227 0.959964 0.375546
174 1 0.489759 0.785287 0.394561
703 2 0.641039 0.985488 0.397538
229 1 0.631542 0.864888 0.434662
674 2 0.758722 0.833618 0.388157
660 2 0.114449 0.938093 0.381444
724 2 0.798817 0.990736 0.384369
225 1 0.0708646 0.79793 0.379929
236 1 0.146116 0.0538168 0.454469
707 2 0.28908 0.0594076 0.42874
232 1 0.179402 0.200674 0.429921
261 1 0.23604 0.185406 0.471005
208 1 0.40893 0.914227 0.419517
214 1 0.430659 0.0460168 0.442707
159 1 0.662992 0.132025 0.416429
729 2 0.569168 0.104952 0.461951
705 2 0.716325 0.177565 0.458836
749 2 0.753905 0.00829593 0.432646
235 1 0.043649 0.150023 0.443642
211 1 0.0597282 0.229246 0.404026
179 1 0.871134 0.0989162 0.408393
690 2 0.0163573 0.0609541 0.398815
715 2 0.858707 0.141919 0.442715
711 2 0.00370178 0.365185 0.453863
242 1 0.271469 0.373126 0.425561
262 1 0.0813221 0.464439 0.473777
272 1 0.182972 0.319394 0.456089
717 2 0.507501 0.175019 0.420585
684 2 0.406635 0.184088 0.464822
238 1 0.354747 0.219349 0.424606
239 1 0.444967 0.321216 0.450628
714 2 0.43595 0.480556 0.468341
712 2 0.28374 0.48532 0.474357
659 2 0.80489 0.237654 0.419749
689 2 0.641477 0.320256 0.426642
718 2 0.732575 0.503182 0.396169
739 2 0.574025 0.459446 0.451244
240 1 0.709212 0.393117 0.457325
181 1 0.950952 0.254074 0.428202
709 2 0.803676 0.375466 0.430261
740 2 0.85762 0.403974 0.470007
237 1 0.303685 0.621288 0.454204
296 1 0.153618 0.593105 0.459769
721 2 0.461127 0.603171 0.446384
722 2 0.367813 0.762896 0.4577
218 1 0.497062 0.698827 0.473297
716 2 0.418446 0.479227 0.429031
694 2 0.62267 0.560714 0.479132
668 2 0.649648 0.684933 0.453265
737 2 0.788423 0.531787 0.43902
215 1 0.0216687 0.527042 0.431305
275 1 0.794338 0.640684 0.403207
719 2 0.779739 0.792555 0.425309
205 1 0.00643037 0.669919 0.394342
695 2 0.174041 0.746856 0.455986
257 1 0.0840198 0.891369 0.458309
746 2 0.251928 0.970044 0.403294
681 2 0.0913918 0.985895 0.424301
233 1 0.313517 0.034474 0.465624
708 2 0.253184 0.876059 0.438501
727 2 0.46424 0.909734 0.454167
204 1 0.561523 0.719355 0.423194
243 1 0.761455 0.870475 0.461057
228 1 0.577162 0.0017427 0.433236
224 1 0.86699 0.724888 0.462342
209 1 0.930541 0.950229 0.412879
755 2 0.943545 0.834372 0.434749
732 2 0.104479 0.133092 0.489462
765 2 0.0716517 0.278596 0.486456
731 2 0.285745 0.0383726 0.534882
287 1 0.139788 0.170319 0.530475
735 2 0.163735 0.00564978 0.500015
733 2 0.451433 0.0291735 0.483159
753 2 0.365042 0.110191 0.502109
310 1 0.426131 0.0312126 0.530273
264 1 0.505573 0.213277 0.503292
778 2 0.668751 0.112304 0.500726
284 1 0.833564 0.0246879 0.528688
289 1 0.4976 0.194745 0.545961
210 1 0.812926 0.108749 0.48935
759 2 0.785336 0.195839 0.518712
265 1 0.95358 0.117626 0.473569
780 2 0.00413807 0.953927 0.525925
762 2 0.941957 0.437238 0.500043
763 2 0.0391585 0.27669 0.525022
273 1 0.0740594 0.583413 0.506032
259 1 0.37583 0.271617 0.527668
234 1 0.318248 0.338271 0.473201
747 2 0.174637 0.434237 0.500547
742 2 0.251903 0.246545 0.504027
734 2 0.590338 0.289002 0.46375
270 1 0.618221 0.24788 0.526765
685 2 0.69256 0.278194 0.49585
738 2 0.456943 0.365884 0.493772
230 1 0.842031 0.258386 0.463835
260 1 0.928701 0.234892 0.499493
761 2 0.818437 0.362967 0.512263
767 2 0.927482 0.562297 0.46497
267 1 0.245986 0.664734 0.487993
278 1 0.118897 0.795215 0.502096
766 2 0.258035 0.539939 0.523188
741 2 0.358267 0.753176 0.501234
713 2 0.380408 0.569523 0.497299
269 1 0.555431 0.474278 0.517646
249 1 0.529393 0.621717 0.510381
779 2 0.627975 0.416786 0.487532
246 1 0.932752 0.645364 0.430724
300 1 0.764707 0.625599 0.477572
245 1 0.766021 0.497354 0.501006
241 1 0.897013 0.572535 0.528602
770 2 0.995865 0.685306 0.546815
266 1 0.251043 0.871266 0.482603
206 1 0.0261783 0.740567 0.458746
726 2 0.998759 0.974208 0.486081
751 2 0.202841 0.887186 0.526538
701 2 0.957379 0.80193 0.496076
227 1 0.37148 0.902359 0.507607
752 2 0.2467 0.742242 0.528993
748 2 0.631416 0.703082 0.494795
704 2 0.790142 0.75738 0.502443
255 1 0.572983 0.00602677 0.504201
772 2 0.609016 0.878932 0.477197
250 1 0.691453 0.0074065 0.47461
279 1 0.528344 0.798692 0.504611
251 1 0.881365 0.979031 0.453768
799 2 0.825411 0.926129 0.498613
774 2 0.903953 0.654931 0.496939
730 2 0.863252 0.83349 0.533855
760 2 0.372381 0.0263865 0.577559
256 1 0.0327245 0.133641 0.558161
788 2 0.198828 0.236889 0.563401
796 2 0.182928 0.062616 0.574901
771 2 0.31741 0.157115 0.596642
757 2 0.338974 0.145028 0.556784
277 1 0.513007 0.121612 0.584328
758 2 0.434821 0.00897509 0.617067
804 2 0.608411 0.0584427 0.549337
290 1 0.743532 0.162934 0.555281
294 1 0.599883 0.2521 0.570626
321 1 0.968819 0.0885145 0.51824
306 1 0.795839 0.939296 0.55955
298 1 0.206975 0.474184 0.553347
286 1 0.0340103 0.269108 0.575313
295 1 0.086757 0.45694 0.531835
728 2 0.232904 0.325863 0.537241
764 2 0.374719 0.289975 0.569995
792 2 0.341125 0.405053 0.513187
789 2 0.641517 0.242073 0.612474
219 1 0.491458 0.361433 0.54862
794 2 0.562621 0.356353 0.599773
790 2 0.773718 0.310133 0.554816
776 2 0.888106 0.25247 0.581533
791 2 0.914017 0.219057 0.539323
366 1 0.779935 0.494885 0.548855
349 1 0.0976094 0.400602 0.57798
293 1 0.233675 0.689215 0.566689
775 2 0.127595 0.620665 0.542853
797 2 0.168622 0.568477 0.585745
248 1 0.347442 0.630811 0.545782
253 1 0.365184 0.729574 0.576946
768 2 0.481511 0.622651 0.604168
322 1 0.527415 0.682694 0.563161
283 1 0.266421 0.890878 0.581288
744 2 0.692552 0.389512 0.531969
769 2 0.491302 0.529412 0.557254
303 1 0.595924 0.534601 0.592298
823 2 0.616643 0.780543 0.536422
254 1 0.655018 0.564331 0.536791
299 1 0.0268429 0.528199 0.561864
274 1 0.96521 0.394675 0.5465
226 1 0.692506 0.611017 0.575757
800 2 0.095215 0.955026 0.557477
793 2 0.0989159 0.788438 0.564771
822 2 0.118554 0.935696 0.606838
743 2 0.434733 0.764092 0.537528
309 1 0.525439 0.910103 0.537984
258 1 0.358585 0.900033 0.549218
282 1 0.604642 0.940116 0.574601
288 1 0.527891 0.786123 0.605786
308 1 0.698654 0.897037 0.527729
785 2 0.949034 0.950639 0.561704
750 2 0.854975 0.658475 0.562738
314 1 0.773359 0.672241 0.534047
783 2 0.70615 0.816296 0.567563
291 1 0.183784 0.218842 0.601848
302 1 0.209499 0.0992918 0.647645
276 1 0.305436 0.094444 0.681179
326 1 0.366055 0.97346 0.653456
756 2 0.354539 0.12786 0.635886
809 2 0.595826 0.0262243 0.607034
268 1 0.441488 0.246257 0.606545
803 2 0.555901 0.035501 0.659392
335 1 0.522261 0.167412 0.634889
784 2 0.834736 0.267709 0.617709
824 2 0.721825 0.0960702 0.589644
280 1 0.877885 0.0904857 0.561986
281 1 0.870155 0.0893836 0.599717
365 1 0.701348 0.238667 0.646134
832 2 0.276363 0.381197 0.578302
331 1 0.0317406 0.332455 0.617107
817 2 0.182945 0.410087 0.612072
801 2 0.0899343 0.478004 0.640654
263 1 0.353727 0.452557 0.546935
787 2 0.326096 0.382165 0.61214
292 1 0.384583 0.540642 0.623351
323 1 0.395876 0.462336 0.688375
347 1 0.209417 0.262989 0.640768
773 2 0.703823 0.450583 0.61564
782 2 0.445401 0.39125 0.641815
319 1 0.448265 0.428196 0.585113
834 2 0.60242 0.357469 0.638582
781 2 0.00592607 0.187167 0.603444
320 1 0.933472 0.412074 0.58846
313 1 0.812479 0.504809 0.583819
311 1 0.772386 0.363545 0.588754
840 2 0.78568 0.36627 0.648386
816 2 0.939565 0.308578 0.645663
798 2 0.187363 0.763573 0.596027
342 1 0.319055 0.562317 0.583075
297 1 0.047981 0.697405 0.591498
795 2 0.103496 0.681419 0.628183
777 2 0.448722 0.722691 0.636977
818 2 0.550808 0.510663 0.628149
324 1 0.65842 0.70193 0.62642
813 2 0.763718 0.590422 0.619401
285 1 0.607577 0.425897 0.565529
315 1 0.0440268 0.540767 0.605619
845 2 0.902941 0.596068 0.614032
860 2 0.99558 0.620039 0.650021
814 2 0.951928 0.822429 0.618257
271 1 0.975333 0.976858 0.60265
821 2 0.221106 0.81595 0.631347
849 2 0.0535246 0.0029685 0.650171
252 1 0.258281 0.0202546 0.614251
348 1 0.46396 0.865285 0.573165
842 2 0.385613 0.861065 0.60677
328 1 0.300782 0.675796 0.611727
819 2 0.548784 0.868558 0.669283
826 2 0.722203 0.0524812 0.635941
808 2 0.682449 0.84602 0.605114
325 1 0.77893 0.727669 0.594051
374 1 0.530371 0.908138 0.628834
754 2 0.917113 0.789199 0.576488
825 2 0.880187 0.722221 0.648092
350 1 0.81773 0.931558 0.615158
332 1 0.131217 0.111115 0.680374
802 2 0.113511 0.0812025 0.610172
872 2 0.213677 0.971359 0.694511
846 2 0.976922 0.0874601 0.687842
810 2 0.0808216 0.189982 0.648193
307 1 0.493084 0.263119 0.730926
333 1 0.360448 0.27128 0.646686
833 2 0.308333 0.273485 0.679592
372 1 0.451367 0.129238 0.668893
827 2 0.381426 0.09771 0.723878
339 1 0.544199 0.254771 0.667381
304 1 0.811345 0.112641 0.669735
301 1 0.669387 0.117936 0.676358
376 1 0.763312 0.284417 0.681558
305 1 0.921215 0.161798 0.637376
850 2 0.898331 0.0164858 0.641844
829 2 0.124231 0.308866 0.673281
812 2 0.222994 0.46612 0.689684
416 1 0.0325011 0.426649 0.672827
807 2 0.280411 0.416025 0.649164
312 1 0.320862 0.525887 0.718151
862 2 0.276 0.57891 0.657369
806 2 0.211984 0.331962 0.70916
835 2 0.623501 0.237427 0.703542
330 1 0.440708 0.226812 0.700274
844 2 0.664192 0.552996 0.69004
340 1 0.664891 0.394315 0.676139
357 1 0.989336 0.243896 0.685871
811 2 0.921644 0.486318 0.640726
871 2 0.900464 0.367081 0.682009
362 1 0.121355 0.572081 0.67143
891 2 0.979832 0.644334 0.703257
368 1 0.301786 0.729234 0.654131
424 1 0.0645126 0.511833 0.71189
341 1 0.208084 0.549473 0.623621
317 1 0.406694 0.647196 0.670565
847 2 0.394734 0.831859 0.668211
874 2 0.393585 0.816501 0.712308
338 1 0.687412 0.5209 0.650093
837 2 0.526002 0.500972 0.66774
343 1 0.548505 0.681079 0.668925
838 2 0.647268 0.672999 0.714666
318 1 0.4777 0.642201 0.700762
839 2 0.755936 0.660216 0.664915
848 2 0.82692 0.521833 0.672956
815 2 0.123163 0.717521 0.663321
346 1 0.233759 0.818751 0.68122
820 2 0.190077 0.924231 0.652137
841 2 0.0620472 0.879299 0.682729
387 1 0.122026 0.720374 0.700198
316 1 0.68768 0.79993 0.684239
327 1 0.437738 0.950338 0.695942
873 2 0.645167 0.948336 0.697437
898 2 0.57649 0.823389 0.706211
329 1 0.769654 0.955005 0.663072
843 2 0.729383 0.825142 0.644776
355 1 0.856137 0.802757 0.682731
423 1 0.748488 0.857656 0.719032
836 2 0.987103 0.80343 0.712582
865 2 0.935512 0.885487 0.655193
881 2 0.175379 0.921625 0.751153
377 1 0.0966854 0.0611769 0.718768
854 2 0.263038 0.0982668 0.747836
786 2 0.224716 0.176985 0.70633
851 2 0.383747 0.395612 0.734009
334 1 0.534911 0.0696998 0.701031
353 1 0.421441 0.175659 0.76315
397 1 0.451948 0.998396 0.753702
358 1 0.76515 0.0171539 0.709849
909 2 0.62951 0.13935 0.738181
390 1 0.772537 0.170796 0.709573
352 1 0.89109 0.263236 0.711687
864 2 0.902586 0.121609 0.724809
876 2 0.990726 0.195141 0.755834
830 2 0.112564 0.0697531 0.756335
853 2 0.756142 0.227107 0.746996
805 2 0.0687246 0.226621 0.723947
863 2 0.0141358 0.36701 0.708309
369 1 0.185656 0.347402 0.773107
857 2 0.188738 0.237316 0.747499
381 1 0.979516 0.383992 0.792275
364 1 0.546037 0.412115 0.753197
359 1 0.346234 0.243845 0.73042
400 1 0.408665 0.514511 0.755091
859 2 0.781691 0.397107 0.712493
360 1 0.524483 0.411846 0.7073
889 2 0.651046 0.338471 0.7319
361 1 0.971042 0.457327 0.745831
351 1 0.0545664 0.330229 0.757732
386 1 0.756707 0.491814 0.757741
385 1 0.897119 0.340393 0.755943
867 2 0.267055 0.664627 0.693568
828 2 0.174424 0.486482 0.73583
858 2 0.059966 0.589823 0.75023
398 1 0.0451913 0.738639 0.742476
831 2 0.187511 0.637715 0.726886
337 1 0.499149 0.739093 0.734878
375 1 0.739064 0.651138 0.74531
370 1 0.656992 0.488647 0.726117
893 2 0.530115 0.570913 0.735477
861 2 0.91296 0.495263 0.704584
345 1 0.784835 0.598574 0.706569
344 1 0.845469 0.692593 0.765625
473 1 0.891548 0.585535 0.736715
852 2 0.280732 0.069078 0.787193
367 1 0.256369 0.791259 0.743837
917 2 0.226655 0.649594 0.764984
373 1 0.343255 0.688131 0.726438
886 2 0.305903 0.946306 0.733405
900 2 0.542098 0.9225 0.732219
354 1 0.67765 0.986806 0.741853
875 2 0.852023 0.736849 0.723872
404 1 0.661425 0.802501 0.747456
379 1 0.853204 0.862814 0.747013
855 2 0.874962 0.945826 0.691198
371 1 0.114899 0.868988 0.719932
896 2 0.0153259 0.87141 0.762876
877 2 0.998452 0.0724093 0.788253
880 2 0.0829064 0.0942461 0.820423
412 1 0.258209 0.167485 0.820472
413 1 0.154636 0.996421 0.794211
892 2 0.366515 0.281939 0.810051
882 2 0.447764 0.0959892 0.791555
382 1 0.616815 0.037862 0.814657
910 2 0.128186 0.184685 0.783966
389 1 0.578167 0.0621801 0.774869
869 2 0.728063 0.0361791 0.792184
924 2 0.602877 0.186988 0.801686
930 2 0.658307 0.334265 0.783079
356 1 0.808308 0.0414537 0.752267
405 1 0.732579 0.182813 0.817313
879 2 0.841351 0.142758 0.775298
425 1 0.869415 0.961491 0.785983
411 1 0.953034 0.507825 0.811684
932 2 0.123953 0.265901 0.817368
443 1 0.242592 0.407731 0.806589
393 1 0.278959 0.21218 0.783627
884 2 0.523811 0.360507 0.803577
887 2 0.419899 0.342988 0.772725
414 1 0.573364 0.238454 0.764254
964 2 0.668161 0.32431 0.828049
391 1 0.692409 0.480721 0.797674
384 1 0.990887 0.221606 0.796521
435 1 0.974692 0.342647 0.833356
460 1 0.865765 0.281359 0.808922
885 2 0.837157 0.416861 0.78584
890 2 0.765907 0.59256 0.82637
363 1 0.0793666 0.532891 0.784416
940 2 0.0679469 0.618625 0.820574
441 1 0.880782 0.556077 0.779338
866 2 0.391263 0.61988 0.784378
408 1 0.277962 0.508188 0.777615
449 1 0.482528 0.490908 0.7876
430 1 0.491865 0.866828 0.76708
923 2 0.449129 0.808081 0.832722
410 1 0.618041 0.532913 0.761772
336 1 0.684639 0.752458 0.802462
870 2 0.536905 0.659976 0.771331
868 2 0.530768 0.772336 0.799566
394 1 0.577102 0.642063 0.811446
415 1 0.792729 0.491259 0.863786
422 1 0.694439 0.630726 0.785901
420 1 0.88894 0.775191 0.854685
972 2 0.841397 0.824221 0.817976
897 2 0.306004 0.891578 0.774662
406 1 0.996596 0.659443 0.78849
392 1 0.241992 0.891176 0.8146
942 2 0.227496 0.720155 0.805803
911 2 0.0127855 0.775264 0.813148
383 1 0.367118 0.78056 0.790464
378 1 0.358657 0.049569 0.818266
919 2 0.475536 0.95162 0.804568
895 2 0.632933 0.91668 0.781379
899 2 0.784532 0.820445 0.778935
399 1 0.575133 0.889316 0.829529
856 2 0.024192 0.918142 0.795464
396 1 0.993802 0.959473 0.733236
401 1 0.157184 0.824425 0.780391
421 1 0.929946 0.932424 0.831034
431 1 0.203004 0.191633 0.875416
990 2 0.870749 0.208512 0.847041
499 1 0.920373 0.0552604 0.860704
388 1 0.325324 0.14845 0.857221
878 2 0.382019 0.228559 0.886621
434 1 0.313984 0.996961 0.870752
941 2 0.463613 0.194501 0.826197
949 2 0.491352 0.170805 0.865281
883 2 0.564177 0.306992 0.858472
481 1 0.599802 0.185558 0.840322
920 2 0.742854 0.933518 0.821508
975 2 0.743672 0.0901229 0.851124
922 2 0.867043 0.102618 0.821492
426 1 0.067254 0.251232 0.854628
937 2 0.222624 0.331053 0.844478
418 1 0.240511 0.322173 0.893507
407 1 0.945205 0.502589 0.851017
901 2 0.110921 0.466167 0.821978
984 2 0.387506 0.318511 0.851146
429 1 0.300749 0.461643 0.8609
888 2 0.722282 0.25193 0.862587
445 1 0.507783 0.422153 0.838129
935 2 0.628858 0.492196 0.831885
960 2 0.73529 0.387993 0.881162
417 1 0.877047 0.357798 0.860343
905 2 0.925849 0.464033 0.894403
944 2 0.816431 0.426829 0.825434
447 1 0.802694 0.559125 0.898921
902 2 0.0392382 0.692199 0.847678
913 2 0.222639 0.553322 0.81821
440 1 0.463077 0.370198 0.884788
894 2 0.298216 0.605391 0.853112
943 2 0.36818 0.664479 0.824105
933 2 0.396412 0.499606 0.819012
939 2 0.492014 0.672565 0.843996
915 2 0.637084 0.606123 0.854142
395 1 0.918737 0.642318 0.873849
497 1 0.882266 0.678823 0.811687
22 1 0.0841077 0.687558 0.886745
916 2 0.0745313 0.960526 0.833563
452 1 0.225578 0.746248 0.847232
921 2 0.217996 0.0243417 0.836962
476 1 0.22248 0.890768 0.870935
968 2 0.0871039 0.959774 0.880548
380 1 0.491318 0.0292069 0.838826
925 2 0.359589 0.830013 0.863161
904 2 0.62054 0.00927005 0.852557
931 2 0.643128 0.756178 0.837522
450 1 0.520769 0.981347 0.891404
403 1 0.50844 0.848207 0.869001
472 1 0.661609 0.865963 0.874393
428 1 0.0709611 0.821201 0.863787
459 1 0.796204 0.89059 0.855419
451 1 0.928879 0.914938 0.868735
475 1 0.735454 0.704282 0.885444
908 2 0.120738 0.197633 0.908909
457 1 0.0861875 0.0284234 0.918301
983 2 0.00501976 0.134203 0.886806
483 1 0.243324 0.124228 0.935654
934 2 0.2781 0.0938671 0.897606
988 2 0.303698 0.262598 0.924272
995 2 0.244203 0.934999 0.916409
478 1 0.31974 0.984442 0.956215
446 1 0.396105 0.103772 0.948375
928 2 0.490993 0.127045 0.904484
953 2 0.723753 0.0977215 0.891647
973 2 0.707863 0.150064 0.951025
402 1 0.97981 0.287301 0.891736
479 1 0.826182 0.128608 0.924149
950 2 0.761469 0.949508 0.893017
976 2 0.860736 0.196557 0.884243
470 1 0.213293 0.420293 0.919308
436 1 0.134304 0.459904 0.882044