ITEM: TIMESTEP
13110
ITEM: NUMBER OF ATOMS
1000
ITEM: BOX BOUNDS pp pp pp
0.0000000000000000e+00 6.2996052494743662e+00
0.0000000000000000e+00 6.2996052494743662e+00
0.0000000000000000e+00 2.5198420997897465e+01
ITEM: ATOMS id type xs ys zs
13 1 0.11663 0.179163 0.0540786
918 2 0.0842212 0.991045 0.032596
28 1 0.248622 0.174455 0.0333138
951 2 0.150762 0.117123 0.999799
8 1 0.303325 0.234405 0.997468
571 2 0.490727 0.205505 0.0184049
12 1 0.438101 0.00401994 0.0296931
3 1 0.315934 0.0477857 0.0133013
526 2 0.361495 0.209448 0.0510053
17 1 0.635191 0.190413 0.0292968
29 1 0.607961 0.0546673 0.00660655
986 2 0.751625 0.0861173 0.00533229
46 1 0.0172415 0.10262 0.0104654
27 1 0.828082 0.12666 0.0369325
477 1 0.954079 0.229262 0.0253603
45 1 0.86882 0.996168 0.00830795
510 2 0.0916453 0.365753 0.0317102
85 1 0.189819 0.468822 0.0449496
581 2 0.182278 0.311881 0.0582497
544 2 0.00661375 0.270427 0.0588763
454 1 0.277021 0.353491 0.0296456
512 2 0.426166 0.337095 0.0249235
558 2 0.493942 0.457418 0.0526874
600 2 0.577658 0.344546 0.00197678
511 2 0.623013 0.331552 0.0373778
529 2 0.819633 0.284034 0.040457
485 1 0.912831 0.392913 0.034706
73 1 0.759956 0.424862 0.0340944
487 1 0.836922 0.483461 0.998175
532 2 0.0215891 0.515373 0.032401
489 1 0.218188 0.59045 0.0192418
997 2 0.123426 0.668535 0.0385396
494 1 0.236609 0.749546 0.0138435
63 1 0.351542 0.512438 0.020063
963 2 0.280508 0.611218 0.0539732
9 1 0.380737 0.68266 0.0297859
552 2 0.641397 0.540902 0.0377581
33 1 0.682626 0.700899 0.0257777
978 2 0.498796 0.603499 0.0217785
86 1 0.884654 0.545511 0.0580095
49 1 0.883066 0.648561 0.0209676
989 2 0.739157 0.587494 0.00696177
524 2 0.977152 0.710234 0.0522435
525 2 0.100972 0.822908 0.0342911
23 1 0.23502 0.93276 0.0443696
936 2 0.0205804 0.942207 0.992366
471 1 0.194893 0.958029 0.00401522
514 2 0.234379 0.779208 0.0554726
947 2 0.415396 0.809416 0.0443479
18 1 0.325636 0.887153 0.0156459
455 1 0.42472 0.782236 0.99969
95 1 0.523404 0.900899 0.0240305
516 2 0.604087 0.99931 0.0434048
998 2 0.563092 0.737409 0.0532222
507 2 0.875891 0.982001 0.0585844
545 2 0.793927 0.792177 0.0121916
549 2 0.945188 0.895985 0.0297045
21 1 0.851882 0.823576 0.0521522
468 1 0.756698 0.953792 0.0355849
528 2 0.17914 0.0418326 0.0720307
486 1 0.984412 0.119871 0.0996442
71 1 0.0181283 0.07903 0.0593163
57 1 0.19779 0.165077 0.116575
498 1 0.329674 0.0588464 0.0540887
560 2 0.302269 0.0936482 0.0913503
48 1 0.491624 0.0612093 0.0612461
52 1 0.285381 0.274946 0.0930407
92 1 0.460787 0.173029 0.0932259
559 2 0.439732 0.00785514 0.104466
565 2 0.721029 0.0751309 0.11759
96 1 0.582431 0.0775009 0.0922585
598 2 0.707603 0.0677532 0.063591
982 2 0.873895 0.151609 0.0733875
100 1 0.831901 0.189339 0.108736
977 2 0.0939523 0.231353 0.0936544
957 2 0.0860722 0.398024 0.0726451
985 2 0.235258 0.414725 0.0990872
125 1 0.0609082 0.470918 0.106135
7 1 0.329618 0.471787 0.06201
527 2 0.424035 0.338078 0.0715725
78 1 0.429216 0.298616 0.113857
503 2 0.526083 0.253059 0.060972
521 2 0.703811 0.226575 0.0592456
79 1 0.618811 0.38938 0.0803395
533 2 0.702878 0.434954 0.114035
34 1 0.599241 0.243823 0.104486
41 1 0.755673 0.313924 0.0984824
35 1 0.783992 0.436273 0.0753303
981 2 0.933338 0.330432 0.0914456
65 1 0.186561 0.534143 0.0767445
517 2 0.0808738 0.648172 0.0962488
523 2 0.249398 0.660527 0.0893663
56 1 0.47547 0.616087 0.0601496
537 2 0.433512 0.719075 0.0924283
538 2 0.39341 0.456987 0.0965701
520 2 0.755747 0.624466 0.0510754
547 2 0.4878 0.576459 0.104509
15 1 0.637653 0.56978 0.0890728
971 2 0.604726 0.741604 0.0918929
37 1 0.0189298 0.551699 0.0737966
77 1 0.911858 0.490017 0.0948452
64 1 0.808569 0.589003 0.0973732
40 1 0.92441 0.693824 0.0832896
70 1 0.105136 0.774878 0.0711954
967 2 0.0356758 0.939556 0.0732625
546 2 0.113228 0.0364791 0.112861
542 2 0.161636 0.815743 0.105243
577 2 0.524264 0.854065 0.114194
597 2 0.322019 0.778698 0.113022
555 2 0.298543 0.924302 0.0800786
539 2 0.298608 0.955209 0.122816
548 2 0.469644 0.891218 0.0709143
513 2 0.626534 0.89922 0.0874963
534 2 0.675055 0.853178 0.0511107
39 1 0.948208 0.838883 0.0972635
502 2 0.771554 0.746658 0.0784997
575 2 0.774628 0.946385 0.0927151
10 1 0.848796 0.767893 0.123563
42 1 0.907268 0.0045291 0.0961155
583 2 0.235942 0.0662621 0.151051
93 1 0.119968 0.212071 0.149284
44 1 0.996844 0.0816846 0.134838
589 2 0.369615 0.123049 0.131646
536 2 0.361816 0.0206312 0.171015
74 1 0.282058 0.198685 0.163211
543 2 0.577628 -0.00165966 0.124561
599 2 0.538674 0.167525 0.138693
99 1 0.660108 0.193009 0.185546
554 2 0.664123 0.0776543 0.156983
89 1 0.687429 0.234481 0.141108
1 1 0.941965 0.271094 0.133153
566 2 0.943824 0.175011 0.168241
576 2 0.816685 0.129512 0.150869
11 1 0.120803 0.33321 0.123067
83 1 0.998904 0.410642 0.15101
107 1 0.131535 0.366051 0.160409
595 2 0.145718 0.520394 0.129681
82 1 0.288966 0.290103 0.130241
561 2 0.364873 0.420037 0.135301
76 1 0.439644 0.28846 0.162944
556 2 0.278918 0.348279 0.16851
62 1 0.525326 0.424738 0.118949
604 2 0.745422 0.405378 0.151176
557 2 0.522342 0.442462 0.164411
590 2 0.856222 0.462192 0.129145
101 1 0.00363891 0.305372 0.176843
80 1 0.810678 0.266545 0.16989
564 2 0.868444 0.433179 0.179051
91 1 0.16397 0.656969 0.125354
632 2 0.128591 0.581327 0.167988
551 2 0.313849 0.594322 0.121466
38 1 0.406124 0.737626 0.152412
141 1 0.273746 0.538427 0.158554
97 1 0.229693 0.693469 0.159535
509 2 0.461898 0.551327 0.143849
519 2 0.626661 0.559707 0.129663
587 2 0.722623 0.71827 0.132603
14 1 0.648742 0.560367 0.169275
139 1 0.523435 0.687881 0.130437
50 1 0.799826 0.584173 0.150699
553 2 0.0387522 0.754164 0.128184
594 2 0.975413 0.608674 0.121987
111 1 0.959498 0.564673 0.16029
615 2 0.880922 0.688094 0.17358
122 1 0.129018 0.812264 0.161347
578 2 0.110952 0.958875 0.149771
53 1 0.275857 0.836567 0.143784
88 1 0.442501 0.937381 0.139685
59 1 0.686509 0.878407 0.137153
90 1 0.531513 0.993615 0.168577
68 1 0.520467 0.829763 0.167994
550 2 0.0140113 0.93494 0.120387
541 2 0.926508 0.0161473 0.16569
98 1 0.934011 0.858513 0.15338
60 1 0.830409 0.985427 0.131656
540 2 0.802838 0.823456 0.164631
118 1 0.0829135 0.0974536 0.175389
603 2 0.239458 0.0312251 0.230056
109 1 0.00672826 0.202774 0.205465
569 2 0.137562 0.169602 0.220231
112 1 0.483743 0.133386 0.180066
110 1 0.409332 0.0458411 0.210703
626 2 0.300694 0.158511 0.205595
157 1 0.618162 0.0365315 0.200239
55 1 0.71409 0.156688 0.220004
607 2 0.550732 0.198634 0.226365
26 1 0.867493 0.150815 0.201233
105 1 0.758689 0.0176097 0.18087
102 1 0.936104 0.039396 0.212249
610 2 0.0744871 0.306131 0.236115
638 2 0.157139 0.276855 0.193235
54 1 0.0281251 0.459477 0.19408
651 2 0.197394 0.435634 0.224676
87 1 0.197471 0.446565 0.1852
531 2 0.354868 0.416326 0.20147
586 2 0.396845 0.310079 0.240058
611 2 0.256216 0.288774 0.221116
84 1 0.420092 0.250896 0.20408
671 2 0.579918 0.320743 0.186543
150 1 0.675014 0.439668 0.193002
585 2 0.759723 0.325563 0.204618
635 2 0.491334 0.445362 0.206641
670 2 0.617061 0.33009 0.228457
592 2 0.710879 0.49065 0.23037
535 2 0.0142792 0.430761 0.230269
580 2 0.90436 0.331236 0.20586
81 1 0.855087 0.491547 0.219194
622 2 0.156019 0.646575 0.199
72 1 0.284465 0.754105 0.197037
104 1 0.0108927 0.738702 0.173794
169 1 0.0420458 0.742221 0.217459
116 1 0.364251 0.617157 0.183586
608 2 0.456424 0.628369 0.218312
606 2 0.284734 0.577616 0.21426
570 2 0.428472 0.770829 0.207695
66 1 0.704379 0.723871 0.180405
593 2 0.620899 0.583201 0.207401
144 1 0.537329 0.652376 0.17912
582 2 0.940689 0.613516 0.211922
94 1 0.796495 0.595419 0.194046
563 2 0.859694 0.736091 0.205647
128 1 0.0908281 0.0161737 0.221586
596 2 0.0687584 0.927231 0.186117
616 2 0.158975 0.851226 0.212685
127 1 0.210227 0.995351 0.187588
613 2 0.310048 0.887166 0.219065
562 2 0.362944 0.852234 0.17395
69 1 0.496836 0.912157 0.202957
572 2 0.64705 0.942216 0.23006
149 1 0.578762 0.805054 0.224228
530 2 0.673995 0.869683 0.185179
108 1 0.89508 0.899044 0.190777
642 2 0.908701 0.843741 0.227838
117 1 0.801939 0.976665 0.215858
172 1 1.00052 0.0463718 0.296334
667 2 0.0305982 0.0852311 0.253873
145 1 0.22328 0.235046 0.280796
119 1 0.0775353 0.212052 0.270124
602 2 0.391159 0.135824 0.286012
124 1 0.358796 0.0216486 0.255778
612 2 0.458748 0.256232 0.27315
138 1 0.436284 0.141518 0.245819
140 1 0.28934 0.174622 0.249698
177 1 0.276355 0.0102191 0.286756
579 2 0.563811 0.063388 0.236627
653 2 0.606236 0.267446 0.263508
151 1 0.696499 0.109691 0.257977
623 2 0.766191 0.244936 0.247841
183 1 0.53561 0.117963 0.278124
605 2 0.837409 0.0868826 0.240733
601 2 0.90539 0.232284 0.2465
652 2 0.887289 0.169467 0.280417
618 2 0.076295 0.456838 0.263082
137 1 0.247695 0.345261 0.255647
617 2 0.400645 0.499393 0.235101
675 2 0.521855 0.387191 0.259475
123 1 0.645118 0.424862 0.277281
135 1 0.955101 0.343468 0.268494
129 1 0.824455 0.409524 0.285696
161 1 0.846368 0.369371 0.240931
636 2 0.229926 0.510105 0.258086
620 2 0.129212 0.650204 0.271062
609 2 0.0434386 0.579959 0.243915
120 1 0.168494 0.668852 0.235467
142 1 0.386795 0.631121 0.249445
624 2 0.332408 0.725648 0.275314
164 1 0.484802 0.670853 0.288438
697 2 0.357682 0.553125 0.288393
146 1 0.526428 0.522983 0.289104
67 1 0.563379 0.53155 0.247107
115 1 0.607946 0.671695 0.254691
630 2 0.735828 0.581275 0.259341
665 2 0.864832 0.678925 0.244161
634 2 0.887143 0.523434 0.259304
629 2 0.979719 0.505756 0.29228
160 1 0.762975 0.702435 0.283195
621 2 0.958853 0.66026 0.275419
567 2 0.0393183 0.812251 0.256766
568 2 0.187983 0.892835 0.248881
176 1 0.152505 0.0132631 0.266546
121 1 0.157598 0.906072 0.295179
247 1 0.188786 0.769611 0.28205
591 2 0.29123 0.755563 0.235559
134 1 0.474539 0.938773 0.243162
672 2 0.363271 0.850934 0.257621
103 1 0.497051 0.779084 0.260741
153 1 0.440635 0.930412 0.2824
113 1 0.740815 0.79337 0.219987
131 1 0.624019 0.961603 0.27096
647 2 0.66757 0.808413 0.260934
648 2 0.897952 0.829538 0.270718
614 2 0.964813 0.953251 0.252311
625 2 0.77689 0.947948 0.250173
588 2 0.928265 0.904145 0.307263
680 2 0.127347 0.0543102 0.311735
185 1 0.103951 0.209311 0.309713
179 1 0.0856379 0.136275 0.34837
163 1 0.382725 0.0117648 0.3152
646 2 0.261845 0.143307 0.312201
197 1 0.436248 0.24136 0.32824
201 1 0.319534 0.17675 0.361707
182 1 0.250471 0.0432572 0.343836
640 2 0.585089 0.223883 0.311474
627 2 0.745527 0.154537 0.335496
126 1 0.735319 0.22347 0.293468
658 2 0.535151 0.0652856 0.316271
190 1 0.664863 0.081735 0.30004
719 2 0.658967 0.0313547 0.353668
679 2 0.866423 0.101452 0.314888
628 2 0.83083 0.0217136 0.283122
130 1 0.121337 0.356097 0.295692
156 1 0.0540022 0.525194 0.344945
656 2 0.134411 0.333723 0.335255
114 1 0.341517 0.341385 0.29321
166 1 0.23475 0.464209 0.293848
168 1 0.400509 0.470919 0.320708
657 2 0.274828 0.320074 0.331388
637 2 0.496526 0.365913 0.302377
650 2 0.546651 0.349329 0.340692
699 2 0.690228 0.363332 0.311156
148 1 0.621167 0.494528 0.337388
662 2 0.824813 0.275609 0.325458
180 1 0.966164 0.268064 0.30344
584 2 0.979362 0.325988 0.338441
194 1 0.762869 0.488971 0.32489
649 2 0.903455 0.459278 0.325115
661 2 0.239213 0.505853 0.34627
641 2 0.103697 0.528774 0.307932
207 1 0.0863886 0.6647 0.337499
691 2 0.24935 0.653099 0.310845
720 2 0.320768 0.755863 0.343137
171 1 0.40148 0.63659 0.333897
158 1 0.676499 0.55646 0.297319
619 2 0.620993 0.710817 0.292724
170 1 0.71318 0.651718 0.33832
673 2 0.558537 0.612216 0.325498
639 2 0.851017 0.554905 0.296275
191 1 0.959798 0.632517 0.315331
674 2 0.815102 0.738666 0.366269
175 1 0.0340575 0.964365 0.333874
231 1 0.145704 0.801538 0.327658
152 1 0.0412695 0.781162 0.298477
696 2 0.456555 0.789674 0.308823
702 2 0.311983 0.901441 0.355353
178 1 0.288354 0.878144 0.315578
202 1 0.467015 0.874136 0.341142
147 1 0.592415 0.856387 0.301364
154 1 0.752183 0.895682 0.281492
676 2 0.739596 0.807171 0.325952
724 2 0.593987 0.788838 0.335837
700 2 0.975143 0.764929 0.342817
155 1 0.872828 0.757778 0.304985
655 2 0.729711 0.955422 0.321366
654 2 0.882183 0.892945 0.345852
106 1 0.183403 0.232209 0.364832
677 2 0.13922 0.0636338 0.382735
706 2 0.426629 0.0362299 0.355877
188 1 0.289344 0.00799909 0.386141
213 1 0.381842 0.108635 0.405583
678 2 0.549651 0.131006 0.361816
187 1 0.565822 0.0831738 0.406841
698 2 0.707542 0.116368 0.389941
133 1 0.657195 0.23208 0.368201
709 2 0.753768 0.270435 0.40507
687 2 0.924448 0.176289 0.3487
159 1 0.824437 0.0324339 0.346737
165 1 0.0256096 0.159705 0.386381
189 1 0.847299 0.145436 0.37914
220 1 0.132588 0.423214 0.368657
710 2 0.108087 0.283352 0.397659
167 1 0.396829 0.393485 0.354817
136 1 0.442557 0.223367 0.384418
736 2 0.322768 0.253459 0.409916
692 2 0.435719 0.466506 0.401316
132 1 0.30929 0.410587 0.390564
686 2 0.575824 0.254046 0.399237
143 1 0.532223 0.379119 0.377436
643 2 0.685273 0.386627 0.393554
217 1 0.730644 0.359067 0.354333
244 1 0.9514 0.357146 0.410292
664 2 0.856433 0.291247 0.372232
693 2 0.962323 0.444807 0.377892
216 1 0.80757 0.484689 0.397478
688 2 0.181524 0.520018 0.400241
199 1 0.159821 0.620353 0.37358
205 1 0.0497628 0.750542 0.413751
203 1 0.999213 0.611213 0.421805
645 2 0.347021 0.550993 0.372905
631 2 0.487223 0.535955 0.362425
221 1 0.284742 0.732928 0.383377
223 1 0.436142 0.733177 0.362809
237 1 0.417019 0.641283 0.399766
195 1 0.595327 0.685859 0.363869
198 1 0.714371 0.716006 0.390123
173 1 0.571784 0.674795 0.405767
723 2 0.669519 0.572917 0.413213
644 2 0.717306 0.538693 0.365993
666 2 0.891053 0.560392 0.362016
196 1 0.990271 0.668682 0.374553
737 2 0.864808 0.61971 0.398996
225 1 0.0995043 0.786382 0.374907
682 2 0.156809 0.912565 0.353389
660 2 0.0693811 0.916373 0.390158
212 1 0.214219 0.872217 0.398148
232 1 0.422412 0.893387 0.385218
238 1 0.555413 0.95689 0.374604
725 2 0.585086 0.814557 0.384701
633 2 0.66164 0.95205 0.402289
703 2 0.730606 0.881262 0.360082
690 2 0.971035 0.0476465 0.3688
200 1 0.941526 0.804623 0.389002
209 1 0.788655 0.853527 0.398279
749 2 0.877448 0.974728 0.388993
236 1 0.178677 0.0230899 0.422232
211 1 0.189601 0.178583 0.416431
181 1 0.0199557 0.121222 0.428594
251 1 0.0464076 0.988279 0.456521
321 1 0.116295 0.150781 0.453797
265 1 0.249678 0.2272 0.461922
235 1 0.331791 0.0956105 0.447056
234 1 0.438289 0.281894 0.461014
718 2 0.575561 0.24384 0.441636
233 1 0.522588 0.0977921 0.450028
684 2 0.742099 0.0440564 0.458149
716 2 0.678015 0.134324 0.42917
705 2 0.824251 0.0954631 0.416526
715 2 0.909818 0.101979 0.454112
215 1 0.828446 0.213102 0.484324
767 2 0.985595 0.220117 0.462985
186 1 0.0636911 0.452696 0.425509
184 1 0.0736515 0.29905 0.433858
192 1 0.0387053 0.419617 0.462778
261 1 0.202277 0.363504 0.415956
732 2 0.185409 0.410187 0.450144
162 1 0.450816 0.320003 0.421921
669 2 0.321068 0.346589 0.437247
714 2 0.432298 0.458794 0.460643
239 1 0.586257 0.417778 0.462967
689 2 0.719586 0.295983 0.440118
240 1 0.741009 0.458177 0.443372
193 1 0.586783 0.423093 0.421441
275 1 0.878639 0.519123 0.428314
659 2 0.872437 0.222874 0.429958
685 2 0.868191 0.325439 0.460464
296 1 0.164479 0.577182 0.451557
745 2 0.103236 0.704574 0.450575
712 2 0.221525 0.684735 0.420447
242 1 0.327757 0.51311 0.424217
779 2 0.502725 0.582237 0.43663
713 2 0.357746 0.672714 0.442699
792 2 0.313557 0.54631 0.463058
722 2 0.534538 0.72539 0.454237
204 1 0.643682 0.590215 0.452053
229 1 0.771034 0.671466 0.430841
246 1 0.879819 0.767564 0.441523
222 1 0.973292 0.570233 0.458292
663 2 0.824647 0.58402 0.461216
735 2 0.212849 0.0317145 0.462734
746 2 0.15049 0.846543 0.434162
741 2 0.347086 0.802326 0.417238
214 1 0.399651 0.896046 0.462244
257 1 0.291116 0.934509 0.435671
707 2 0.502933 0.823511 0.422894
708 2 0.290661 0.800038 0.457156
208 1 0.474148 0.974813 0.424621
174 1 0.645728 0.816468 0.417507
683 2 0.609942 0.946944 0.444749
206 1 0.753588 0.828512 0.44235
681 2 0.987064 0.96321 0.417436
755 2 0.00684296 0.830887 0.452325
717 2 0.785274 0.953737 0.426966
224 1 0.900744 0.935931 0.454466
210 1 0.0842039 0.060975 0.494181
791 2 0.141041 0.192131 0.511757
280 1 0.145219 0.0304911 0.532043
284 1 0.258704 0.127732 0.489658
753 2 0.453978 0.028492 0.483222
742 2 0.38178 0.231422 0.496162
264 1 0.617471 0.0176965 0.484861
734 2 0.657054 0.17133 0.477013
804 2 0.727147 0.200421 0.513211
729 2 0.720009 0.0168524 0.518816
309 1 0.56967 0.154324 0.508055
308 1 0.861155 0.0780879 0.525679
711 2 0.948118 0.154937 0.496219
763 2 0.14111 0.277996 0.481457
272 1 0.106801 0.340622 0.51473
695 2 0.23129 0.464595 0.491206
747 2 0.32434 0.354741 0.473601
249 1 0.372986 0.49933 0.497492
757 2 0.254397 0.309154 0.508645
259 1 0.403198 0.371169 0.521862
738 2 0.573892 0.288813 0.493272
269 1 0.533636 0.441729 0.498383
739 2 0.725283 0.406389 0.477967
260 1 0.811965 0.379656 0.506569
740 2 0.97252 0.316878 0.497379
262 1 0.910047 0.445567 0.488341
278 1 0.206825 0.67739 0.479213
762 2 0.0749226 0.535645 0.485709
766 2 0.229775 0.620771 0.521297
754 2 0.0125981 0.609526 0.524294
227 1 0.360808 0.666123 0.509311
255 1 0.416783 0.73442 0.476936
721 2 0.723307 0.549455 0.486009
228 1 0.698814 0.740222 0.477135
218 1 0.505062 0.580546 0.479151
744 2 0.737635 0.509055 0.535646
694 2 0.717081 0.63958 0.516752
748 2 0.57864 0.558932 0.519019
300 1 0.58517 0.7129 0.50549
701 2 0.0100025 0.708455 0.482848
314 1 0.886059 0.599607 0.50271
726 2 0.141259 0.817006 0.480194
793 2 0.109328 0.713019 0.515665
799 2 0.000515375 0.923063 0.491719
256 1 0.129098 0.872327 0.532881
780 2 0.169406 0.93815 0.496551
733 2 0.320085 0.959791 0.491797
731 2 0.456491 0.959794 0.518308
752 2 0.280042 0.815429 0.502376
266 1 0.453147 0.808706 0.507936
727 2 0.546791 0.856506 0.476925
772 2 0.74618 0.898754 0.479664
704 2 0.645548 0.877086 0.504784
290 1 0.00753481 0.967181 0.52709
250 1 0.855807 0.011684 0.489659
668 2 0.779522 0.776544 0.51217
774 2 0.889056 0.810983 0.483478
243 1 0.835375 0.93083 0.531903
770 2 0.968941 0.798513 0.519997
802 2 0.176022 0.0250322 0.573257
781 2 0.155094 0.175523 0.55608
281 1 0.0283844 0.00495156 0.563542
788 2 0.177758 0.218469 0.593274
302 1 0.029472 0.204787 0.585404
310 1 0.323585 0.148615 0.581044
289 1 0.437665 0.148837 0.544273
728 2 0.333714 0.247094 0.547186
809 2 0.534253 0.126985 0.572688
824 2 0.565265 0.0640361 0.536576
759 2 0.699421 0.120993 0.547224
294 1 0.985622 0.167021 0.534318
789 2 0.827502 0.0328123 0.559833
761 2 0.845475 0.243355 0.544713
784 2 0.892638 0.154032 0.573879
286 1 0.0572885 0.317039 0.562058
295 1 0.214097 0.343495 0.54312
315 1 0.12862 0.491691 0.519761
790 2 0.0308583 0.472488 0.553348
349 1 0.167379 0.458779 0.568789
267 1 0.281962 0.479217 0.530525
298 1 0.295243 0.362969 0.577964
764 2 0.42754 0.259731 0.583977
263 1 0.440269 0.382935 0.562211
778 2 0.588241 0.242706 0.540072
285 1 0.571551 0.411431 0.540933
219 1 0.679283 0.347424 0.523421
270 1 0.707235 0.266594 0.564787
794 2 0.583041 0.341145 0.584022
274 1 0.669496 0.454143 0.569943
765 2 0.941898 0.355094 0.531207
776 2 0.795886 0.432185 0.586566
797 2 0.136651 0.598399 0.551602
785 2 0.0315668 0.723916 0.557052
299 1 0.291377 0.57036 0.564762
775 2 0.345056 0.733931 0.569386
769 2 0.450182 0.520553 0.581125
288 1 0.486748 0.672649 0.570679
258 1 0.454192 0.539744 0.533665
322 1 0.451874 0.711666 0.534753
366 1 0.573598 0.551584 0.561865
254 1 0.705323 0.658397 0.556539
241 1 0.640564 0.623605 0.593222
230 1 0.888894 0.494456 0.5363
245 1 0.843556 0.637261 0.564785
273 1 0.730081 0.73531 0.586909
751 2 0.203811 0.736903 0.555124
796 2 0.230487 0.889033 0.561806
800 2 0.121397 0.881828 0.58779
287 1 0.288386 0.0220111 0.530968
798 2 0.348341 0.835408 0.536853
348 1 0.374336 0.00238025 0.568113
777 2 0.45438 0.852587 0.576621
279 1 0.531098 0.847519 0.539957
350 1 0.604455 0.796914 0.575596
823 2 0.703567 0.843794 0.540732
282 1 0.649858 0.981613 0.562772
297 1 0.838718 0.892733 0.578119
306 1 0.866313 0.784111 0.550822
730 2 0.981228 0.870933 0.561417
795 2 0.918778 0.720254 0.584316
850 2 0.075933 0.0844588 0.607473
807 2 0.0509842 0.179967 0.635332
271 1 0.0272668 0.0170954 0.648305
771 2 0.230243 0.0800797 0.623721
372 1 0.38308 0.0268689 0.620662
832 2 0.354512 0.195639 0.618417
277 1 0.73884 0.0727514 0.593294
374 1 0.647009 0.0962675 0.633829
268 1 0.648247 0.213901 0.601974
319 1 0.50139 0.125636 0.621271
758 2 0.531473 0.982805 0.587187
301 1 0.769739 0.205997 0.633419
311 1 0.788653 0.252792 0.593996
808 2 0.866772 0.0390987 0.611467
810 2 0.907354 0.200587 0.616549
291 1 0.0502204 0.298141 0.613787
782 2 0.221292 0.281929 0.632906
357 1 0.152795 0.445577 0.607087
293 1 0.449917 0.381941 0.607902
292 1 0.30154 0.379885 0.617492
248 1 0.505613 0.279201 0.631951
845 2 0.629144 0.455327 0.604867
335 1 0.650641 0.327329 0.635982
226 1 0.559015 0.46148 0.64293
320 1 0.803739 0.391419 0.623615
817 2 0.933902 0.333775 0.646084
331 1 0.95136 0.399543 0.598355
811 2 0.0595995 0.607403 0.590933
814 2 0.20211 0.623824 0.619166
283 1 0.174554 0.737784 0.592637
891 2 0.0524275 0.545733 0.643541
341 1 0.305306 0.52649 0.599989
328 1 0.441338 0.542627 0.623513
253 1 0.35062 0.685056 0.611857
768 2 0.592107 0.610836 0.629451
303 1 0.735651 0.564195 0.617232
313 1 0.886274 0.553576 0.595439
750 2 0.813547 0.718768 0.613824
825 2 0.968992 0.642535 0.618027
840 2 0.861258 0.541301 0.640524
822 2 0.0321738 0.779642 0.606608
368 1 0.149427 0.790373 0.627942
252 1 0.133701 0.948386 0.628348
743 2 0.35529 0.840584 0.602502
760 2 0.257489 0.950088 0.606667
326 1 0.487981 0.875869 0.620286
842 2 0.279583 0.817768 0.636959
818 2 0.488477 0.731033 0.603596
317 1 0.401883 0.748499 0.645224
325 1 0.640336 0.780593 0.618994
783 2 0.679762 0.915025 0.599364
324 1 0.617592 0.936321 0.63676
843 2 0.821806 0.870809 0.618593
865 2 0.966301 0.924927 0.606505
355 1 0.948143 0.837431 0.64907
347 1 0.175746 0.0570268 0.657343
829 2 0.0508744 0.121079 0.675184
833 2 0.174273 0.114768 0.708554
416 1 0.163127 0.208387 0.662492
803 2 0.48926 0.0177113 0.649753
787 2 0.358674 0.148736 0.659314
333 1 0.483139 0.173832 0.681927
323 1 0.264725 0.225365 0.686966
346 1 0.35192 0.0482808 0.687638
304 1 0.706354 0.0325707 0.666344
376 1 0.665378 0.197918 0.661753
332 1 0.889091 0.118382 0.654378
846 2 0.841253 0.0614168 0.695155
812 2 0.269608 0.407154 0.673336
861 2 0.107155 0.365639 0.646204
424 1 0.122564 0.333777 0.695651
387 1 0.0675375 0.484769 0.677283
834 2 0.362948 0.310437 0.646987
338 1 0.390433 0.319214 0.69052
851 2 0.234919 0.461204 0.705528
364 1 0.445942 0.479631 0.69343
862 2 0.404022 0.440757 0.655058
342 1 0.521867 0.342262 0.674929
365 1 0.672582 0.356791 0.677532
305 1 0.803771 0.243401 0.674422
816 2 0.761066 0.465098 0.663777
377 1 0.959345 0.274552 0.683613
345 1 0.883963 0.409032 0.681792
801 2 0.23587 0.518673 0.642237
848 2 0.0258974 0.61953 0.688481
815 2 0.284125 0.685115 0.661914
362 1 0.223396 0.618287 0.696237
900 2 0.353341 0.567051 0.676422
831 2 0.364901 0.722045 0.704721
773 2 0.620856 0.550883 0.673532
847 2 0.476284 0.637939 0.661934
340 1 0.737302 0.629562 0.689355
813 2 0.721484 0.656186 0.646652
873 2 0.512325 0.716675 0.693101
838 2 0.872967 0.570799 0.684786
839 2 0.862781 0.706602 0.652868
860 2 0.0753505 0.710443 0.656111
821 2 0.0820662 0.878459 0.658747
396 1 0.103455 0.983149 0.689198
820 2 0.265596 0.924292 0.717938
836 2 0.139388 0.792657 0.68343
756 2 0.326326 0.951014 0.652535
867 2 0.302234 0.857868 0.680333
874 2 0.417139 0.923514 0.711658
819 2 0.450328 0.856088 0.67021
343 1 0.588994 0.804 0.670961
276 1 0.56306 0.982535 0.686558
358 1 0.705351 0.901072 0.688258
849 2 0.836576 0.963795 0.650961
855 2 0.93651 0.744303 0.691002
826 2 0.749823 0.835723 0.649959
864 2 0.948219 0.976027 0.684943
881 2 0.0175649 0.0250833 0.748958
830 2 0.0074901 0.172728 0.752584
786 2 0.228725 0.0612922 0.763659
876 2 0.17618 0.203528 0.743603
330 1 0.514311 0.07231 0.717907
353 1 0.380301 0.188087 0.707953
307 1 0.339728 0.17102 0.75033
316 1 0.313139 0.0538284 0.729166
827 2 0.668089 0.0887147 0.700243
390 1 0.597012 0.238638 0.702883
389 1 0.715417 0.0955111 0.763307
882 2 0.604124 0.169229 0.743208
853 2 0.811414 0.156829 0.729829
352 1 0.997622 0.084687 0.711697
879 2 0.87447 0.113585 0.76329
835 2 0.12868 0.368179 0.731938
863 2 0.0440675 0.226308 0.715543
361 1 0.985581 0.393081 0.713004
410 1 0.0281511 0.464828 0.752261
359 1 0.326241 0.381538 0.729069
837 2 0.439405 0.291846 0.742368
339 1 0.52313 0.384016 0.712731
329 1 0.614306 0.308851 0.767941
844 2 0.690079 0.459864 0.703395
889 2 0.531255 0.446928 0.750224
859 2 0.688871 0.331287 0.730114
449 1 0.729112 0.452607 0.758974
871 2 0.845195 0.299036 0.709967
930 2 0.78212 0.25599 0.759011
385 1 0.909223 0.356608 0.747095
370 1 0.832353 0.483929 0.716871
893 2 0.886242 0.519454 0.751342
857 2 0.233281 0.520916 0.745114
386 1 0.0951352 0.509379 0.718797
312 1 0.0896804 0.615368 0.749366
896 2 0.0853336 0.716166 0.717761
408 1 0.365383 0.490817 0.75934
373 1 0.352179 0.536521 0.719993
367 1 0.294478 0.679048 0.738889
318 1 0.478163 0.690902 0.731887
360 1 0.547665 0.584931 0.707688
898 2 0.727895 0.613774 0.730705
375 1 0.603795 0.583318 0.757553
909 2 0.648258 0.728188 0.722105
875 2 0.865444 0.694145 0.729006
473 1 0.970767 0.566939 0.719562
411 1 0.924471 0.656407 0.762797
805 2 0.128312 0.90074 0.737809
384 1 0.0339439 0.871892 0.708764
841 2 0.240202 0.777986 0.711649
371 1 0.180859 0.758074 0.761074
872 2 0.361881 0.811741 0.741365
886 2 0.49152 0.962071 0.749307
334 1 0.654925 0.893814 0.736481
430 1 0.560753 0.79987 0.750201
327 1 0.557648 0.850402 0.704548
972 2 0.688607 0.722586 0.763429
423 1 0.797986 0.779523 0.696334
869 2 0.760212 0.995457 0.721904
404 1 0.783919 0.838782 0.741523
398 1 0.985334 0.807584 0.743753
356 1 0.883017 0.956087 0.743725
379 1 0.880837 0.880739 0.70888
413 1 0.145094 0.159841 0.785387
880 2 -0.00091882 0.108185 0.788885
916 2 0.144317 0.0172343 0.793449
854 2 0.464553 0.0951156 0.759956
369 1 0.387393 0.0889459 0.796835
378 1 0.288121 0.18932 0.826148
924 2 0.518916 0.973903 0.791976
892 2 0.724168 0.195484 0.793551
895 2 0.577747 0.138767 0.789388
922 2 0.857724 0.0592321 0.798477
990 2 0.955627 0.256461 0.788271
964 2 0.85988 0.220923 0.814695
828 2 0.213887 0.42667 0.776354
393 1 0.0765426 0.323607 0.772094
932 2 0.15953 0.291365 0.805726
441 1 0.147806 0.473942 0.808494
363 1 0.281455 0.226856 0.782464
443 1 0.41113 0.369722 0.781037
984 2 0.401735 0.266447 0.810885
901 2 0.296197 0.428248 0.812074
414 1 0.683004 0.405068 0.797503
884 2 0.551773 0.308995 0.805462
405 1 0.603364 0.443777 0.826148
806 2 0.945413 0.432407 0.791168
460 1 0.822932 0.33974 0.787921
351 1 0.87842 0.469478 0.834158
912 2 0.0222351 0.568942 0.782281
392 1 0.145983 0.669859 0.806618
897 2 0.335869 0.742403 0.773898
400 1 0.45371 0.625696 0.764586
858 2 0.300464 0.599506 0.786347
917 2 0.445128 0.673646 0.798539
935 2 0.491537 0.479946 0.797736
391 1 0.577931 0.614078 0.801008
381 1 0.804036 0.536607 0.801633
422 1 0.772863 0.603447 0.769038
856 2 0.946894 0.691356 0.809558
870 2 0.716061 0.728223 0.798522
877 2 0.118989 0.893322 0.772315
921 2 0.00345099 0.975674 0.81966
344 1 0.0445216 0.752005 0.775058
406 1 0.0324501 0.836071 0.80531
942 2 0.199205 0.864169 0.80898
941 2 0.401996 0.943412 0.814501
382 1 0.514167 0.852492 0.823472
852 2 0.314694 0.894288 0.779005
383 1 0.335508 0.779512 0.810663
476 1 0.259211 0.0455793 0.817453
920 2 0.616895 0.00978694 0.821431
337 1 0.548077 0.794969 0.788505
397 1 0.650188 0.928002 0.771974
354 1 0.801431 0.969227 0.775464
899 2 0.850544 0.790842 0.778757
885 2 0.863394 0.835084 0.817391
421 1 0.743042 0.907441 0.808661
420 1 0.967573 0.919175 0.776841
388 1 0.243274 0.128396 0.863203
457 1 0.111385 0.0740485 0.839174
955 2 0.00803655 0.203851 0.829808
954 2 0.0603716 0.191293 0.875399
412 1 0.501825 0.0790861 0.823007
380 1 0.375086 0.0881533 0.844257
429 1 0.631003 0.209374 0.831176
949 2 0.559795 0.125117 0.856975
399 1 0.705579 0.0109372 0.856853
976 2 0.750052 0.107434 0.822129
953 2 0.711814 0.204363 0.864646
499 1 0.870992 0.16241 0.861218
453 1 0.00975316 0.0417703 0.866561
431 1 0.0529141 0.354156 0.824571
878 2 0.18805 0.250979 0.849297
940 2 0.18199 0.433023 0.847089
426 1 0.122225 0.346842 0.876245
910 2 0.315804 0.343772 0.846131
440 1 0.378038 0.241166 0.874169
445 1 0.436995 0.444821 0.837688
418 1 0.26421 0.350253 0.882288
458 1 0.436361 0.470272 0.877725
462 1 0.483845 0.277591 0.841279
975 2 0.636399 0.347873 0.859332
960 2 0.545565 0.364351 0.886672
417 1 0.767192 0.339061 0.834612
435 1 0.941581 0.293359 0.856386
883 2 0.723194 0.484288 0.845658
966 2 0.828476 0.431832 0.868624
402 1 0.00622225 0.439357 0.856424
944 2 0.0408478 0.558111 0.826767
911 2 0.0599445 0.717943 0.838598
913 2 0.193805 0.596216 0.836738
22 1 0.270255 0.711241 0.851907
407 1 0.111828 0.608176 0.872521
401 1 0.403957 0.738132 0.841621
915 2 0.390719 0.585491 0.822234
937 2 0.314719 0.549664 0.866999
943 2 0.464562 0.614563 0.883569
887 2 0.519897 0.645766 0.841134
394 1 0.656744 0.620394 0.835266
939 2 0.57315 0.501669 0.861374
931 2 0.733387 0.561945 0.875665
923 2 0.625062 0.684845 0.878273
933 2 0.810297 0.632544 0.831536
497 1 0.911698 0.727192 0.864591
890 2 0.948288 0.575653 0.859555
452 1 0.25244 0.970435 0.850635
968 2 0.138415 0.990419 0.878225
428 1 0.109007 0.866918 0.845305
30 1 0.0743028 0.77257 0.88015
434 1 0.396777 0.880462 0.852016
894 2 0.374946 0.762212 0.886719
866 2 0.545932 0.809292 0.859706
919 2 0.629781 0.753469 0.826426
481 1 0.505873 0.981822 0.85053
868 2 0.624518 0.917644 0.880202
425 1 0.851733 0.972467 0.8385
336 1 0.767087 0.792628 0.851182
451 1 0.828319 0.979178 0.8768
469 1 0.973386 0.896233 0.861319
995 2 0.115284 0.0924429 0.908076
479 1 0.0890348 0.152798 0.949171
928 2 0.406803 0.114892 0.888068
446 1 0.255664 0.164955 0.93746
934 2 0.276765 0.188926 0.900663
474 1 0.381625 0.0550991 0.920364
908 2 0.536547 0.204935 0.887292
904 2 0.757913 0.126534 0.890239
427 1 0.601528 0.0687146 0.906457
484 1 0.68951 0.0953446 0.94383
996 2 0.984635 0.225375 0.913133
888 2 0.849553 0.246295 0.893724
75 1 0.734772 0.248674 0.927378
929 2 0.993016 0.01019 0.932602
459 1 0.934134 0.107999 0.895072
950 2 0.836002 0.0655602 0.928664
483 1 0.146704 0.233994 0.915539
25 1 0.101993 0.411473 0.916752