ITEM: TIMESTEP
8470
ITEM: NUMBER OF ATOMS
1000
ITEM: BOX BOUNDS pp pp pp
0.0000000000000000e+00 6.2996052494743662e+00
0.0000000000000000e+00 6.2996052494743662e+00
0.0000000000000000e+00 2.5198420997897465e+01
ITEM: ATOMS id type xs ys zs
11 1 0.0131621 0.197043 0.034917
486 1 0.0566398 0.313636 0.98784
985 2 0.154046 0.199775 0.0539439
952 2 0.136085 0.0631511 0.0274922
482 1 0.228022 0.228535 0.0179299
980 2 0.428066 0.182185 0.0098262
13 1 0.310596 0.104577 0.0426596
512 2 0.613674 0.119381 0.0143361
504 2 0.776452 0.0384234 0.0240213
526 2 0.527693 0.197475 0.039346
501 2 0.623567 0.250706 0.993686
529 2 0.695257 0.185447 0.0419536
477 1 0.86801 0.197169 0.0415586
528 2 0.110816 0.329488 0.0365347
61 1 0.013124 0.484033 0.0161393
963 2 0.200614 0.463423 0.0247459
927 2 0.393195 0.523652 0.0167056
517 2 0.305772 0.521923 0.0595001
957 2 0.290504 0.371409 0.0465846
999 2 0.512743 0.415932 0.00113026
33 1 0.548006 0.559401 0.0165113
506 2 0.635326 0.329391 0.0265766
524 2 0.608446 0.540314 0.057297
989 2 0.692023 0.482119 0.0178565
977 2 0.923409 0.337919 0.0318941
981 2 0.940009 0.413073 0.0634455
487 1 0.791026 0.387907 0.0467206
545 2 0.882668 0.588805 0.0417061
962 2 0.0772349 0.602128 0.0273935
70 1 0.0937011 0.793604 0.0466786
936 2 0.983589 0.705728 0.0124295
43 1 0.261659 0.603072 0.00546731
18 1 0.462869 0.635168 0.0452748
997 2 0.225058 0.696696 0.0431885
24 1 0.569025 0.714134 0.0134641
17 1 0.565021 0.831216 0.0386396
485 1 0.765085 0.560963 0.0612918
19 1 0.426332 0.68995 0.00989811
520 2 0.696668 0.649517 0.0327172
961 2 0.850141 0.482744 0.0171054
6 1 0.706475 0.696587 0.987014
982 2 0.960494 0.0454525 0.0254577
967 2 0.097571 0.975323 0.0588332
21 1 0.1206 0.755102 0.00631401
46 1 0.0163675 0.877739 0.024229
9 1 0.422968 0.836569 0.0221077
36 1 0.451812 0.0307835 0.0309809
37 1 0.222597 0.905425 0.0336417
918 2 0.27383 0.925924 0.992282
534 2 0.693318 0.903788 0.0558005
95 1 0.701358 0.80628 0.0197552
29 1 0.573108 0.969059 0.0152125
484 1 0.723903 0.942504 0.987333
507 2 0.876222 0.907796 0.0109038
575 2 0.831721 0.945555 0.0588075
495 1 0.805455 0.793058 0.989657
80 1 0.0488504 0.116409 0.0927579
555 2 0.211386 0.0464808 0.106695
101 1 0.223944 0.0348538 0.0707511
598 2 0.0688945 0.271435 0.112818
489 1 0.382796 0.238807 0.0400273
52 1 0.355961 0.155629 0.091924
28 1 0.450396 0.106275 0.06916
12 1 0.587063 0.0535127 0.0548977
552 2 0.497089 0.287137 0.0733728
600 2 0.534444 0.0693429 0.0983579
1 1 0.961335 0.0589939 0.0648308
573 2 0.737675 0.0655014 0.0699912
34 1 0.719113 0.158534 0.104457
71 1 0.902257 0.200126 0.079292
73 1 0.771902 0.293858 0.0863188
59 1 0.889897 0.141184 0.118084
35 1 0.0290985 0.270315 0.0688148
532 2 0.103829 0.457644 0.0570431
85 1 0.0627227 0.399579 0.0931898
7 1 0.202163 0.312133 0.078764
63 1 0.453442 0.394633 0.0423982
56 1 0.344121 0.337271 0.0849015
65 1 0.232114 0.457117 0.0893115
556 2 0.388954 0.421844 0.122887
77 1 0.252857 0.348521 0.115568
558 2 0.6451 0.3478 0.0666362
50 1 0.695705 0.378601 0.120451
78 1 0.549783 0.359412 0.116368
521 2 0.634219 0.196693 0.0763819
40 1 0.969677 0.510459 0.0909665
511 2 0.789296 0.445936 0.0874264
533 2 0.921654 0.326224 0.0983391
86 1 0.0147451 0.589101 0.062474
39 1 0.111059 0.763169 0.0818833
525 2 0.187165 0.628812 0.0752925
42 1 0.19407 0.690523 0.115982
550 2 0.328514 0.675361 0.0939994
516 2 0.584811 0.705719 0.0560289
549 2 0.746341 0.748335 0.0582521
538 2 0.458103 0.491689 0.0837772
523 2 0.521501 0.649966 0.0863105
998 2 0.614745 0.49891 0.0963498
559 2 0.670634 0.67203 0.0912636
15 1 0.845723 0.612927 0.0872788
509 2 0.876356 0.537287 0.125759
10 1 0.971771 0.710753 0.0945761
44 1 0.143885 0.917749 0.0898174
502 2 0.966664 0.841284 0.0668524
546 2 0.261476 0.832692 0.0840016
560 2 0.34132 0.947802 0.0965277
23 1 0.371096 0.755494 0.0545161
57 1 0.377679 0.941597 0.0546197
542 2 0.350532 0.797035 0.113282
571 2 0.447848 0.810942 0.0827492
83 1 0.353455 0.0548565 0.122554
498 1 0.523778 0.945239 0.0735622
27 1 0.665477 0.968298 0.098759
548 2 0.6011 0.811046 0.0840014
48 1 0.488191 0.941704 0.110643
530 2 0.983812 0.888236 0.106624
100 1 0.860717 0.770754 0.0267348
565 2 0.863914 0.0218262 0.0915603
96 1 0.790067 0.827847 0.0862128
26 1 0.0545907 0.156627 0.141014
566 2 0.11226 0.0857029 0.171658
551 2 0.433336 0.248484 0.109911
82 1 0.22814 0.178355 0.12238
93 1 0.301532 0.0492672 0.156896
53 1 0.469027 0.0174645 0.15156
87 1 0.409483 0.238473 0.176308
125 1 0.45252 0.179255 0.142276
92 1 0.769835 0.0921559 0.136761
577 2 0.787323 0.929762 0.155018
554 2 0.911327 0.031006 0.146789
60 1 0.858597 0.189109 0.156742
580 2 0.172082 0.276612 0.150336
41 1 0.00794647 0.438584 0.127221
590 2 0.147475 0.423449 0.138381
535 2 0.172053 0.389523 0.179591
527 2 0.470889 0.35248 0.148338
581 2 0.323013 0.271256 0.139227
561 2 0.297867 0.440088 0.155452
112 1 0.538672 0.330287 0.179383
503 2 0.585517 0.197307 0.125322
62 1 0.596981 0.43983 0.151535
531 2 0.521555 0.549687 0.126722
89 1 0.936068 0.293866 0.136664
99 1 0.789211 0.332783 0.148644
519 2 0.716455 0.522592 0.136584
79 1 0.724951 0.17968 0.18692
54 1 0.0377565 0.355476 0.164862
553 2 0.0583566 0.501984 0.168832
64 1 0.0956754 0.562597 0.112137
595 2 0.187358 0.688197 0.181863
564 2 0.161923 0.584598 0.144569
587 2 0.0464601 0.743951 0.171224
547 2 0.276215 0.545121 0.116424
38 1 0.455322 0.682856 0.116155
91 1 0.343281 0.618809 0.143988
632 2 0.462289 0.49523 0.161639
562 2 0.613303 0.782371 0.156583
537 2 0.600013 0.698402 0.121249
116 1 0.68712 0.629824 0.160248
570 2 0.477268 0.695281 0.159616
14 1 0.899914 0.429286 0.160455
513 2 0.88099 0.774141 0.124541
66 1 0.926476 0.661126 0.146489
88 1 0.77656 0.66669 0.126088
540 2 0.0464625 0.761134 0.127798
576 2 0.110194 0.997159 0.134406
541 2 0.180935 0.84233 0.118945
108 1 0.152765 0.832258 0.199021
98 1 0.175061 0.931573 0.166944
97 1 0.224446 0.783778 0.149881
567 2 0.296659 0.976013 0.195326
596 2 0.37145 0.906476 0.136896
122 1 0.33283 0.724977 0.185597
74 1 0.613425 0.0196011 0.135037
543 2 0.712951 0.831562 0.122418
572 2 0.588371 0.928514 0.171628
578 2 0.44043 0.840218 0.176062
597 2 0.521608 0.832619 0.131931
69 1 0.959141 0.885349 0.145514
539 2 0.830958 0.931826 0.117812
90 1 0.794298 0.72937 0.162957
55 1 0.863502 0.897347 0.191143
81 1 0.0625983 0.124076 0.208316
601 2 0.00628912 0.208162 0.17589
102 1 0.231078 0.104512 0.213947
128 1 0.172523 0.212602 0.188132
603 2 0.35869 0.200236 0.220703
157 1 0.523362 0.161518 0.225296
626 2 0.314516 0.268311 0.259127
583 2 0.446774 0.0411994 0.200429
134 1 0.630269 0.0609163 0.207645
599 2 0.558955 0.167584 0.177251
579 2 0.678329 0.177742 0.226269
638 2 0.564111 0.29061 0.246424
536 2 0.664444 0.0590512 0.16725
68 1 0.825989 0.0816372 0.180746
605 2 0.973225 0.0430865 0.185694
110 1 0.868068 0.185282 0.215003
585 2 0.100899 0.403575 0.213635
107 1 0.245555 0.277303 0.228822
582 2 0.217755 0.4781 0.219623
150 1 0.975646 0.290018 0.212159
610 2 0.304347 0.335797 0.190361
611 2 0.480967 0.312998 0.21975
607 2 0.421581 0.447575 0.20041
586 2 0.640223 0.345618 0.218334
635 2 0.739719 0.503219 0.204311
76 1 0.820538 0.322464 0.18781
604 2 0.714671 0.4239 0.174517
671 2 0.927372 0.41333 0.238768
111 1 0.11686 0.568712 0.198926
591 2 0.275553 0.676694 0.218793
141 1 0.290269 0.555489 0.1899
72 1 0.439126 0.617886 0.196735
617 2 0.331206 0.534218 0.243539
557 2 0.571589 0.532121 0.187375
608 2 0.540958 0.473965 0.227456
67 1 0.653751 0.698751 0.193878
84 1 0.922184 0.451801 0.194761
609 2 0.828631 0.596861 0.225751
589 2 0.793714 0.711184 0.20759
94 1 0.816015 0.566757 0.16979
615 2 0.948029 0.60717 0.19774
104 1 0.0484042 0.518901 0.237656
120 1 0.0888017 0.701285 0.22279
588 2 0.0313704 0.849423 0.223865
117 1 0.138746 0.983412 0.20411
105 1 0.0399943 0.894514 0.179771
622 2 0.294721 0.838552 0.215162
127 1 0.486637 0.0243429 0.251626
163 1 0.348418 0.0247915 0.233273
139 1 0.713425 0.842603 0.191755
592 2 0.651301 0.765853 0.22883
568 2 0.529966 0.945796 0.219707
593 2 0.541343 0.789972 0.209101
144 1 0.71117 0.945214 0.220006
113 1 0.838125 0.844957 0.233621
563 2 0.947018 0.749431 0.201936
594 2 0.962151 0.690834 0.244593
569 2 0.893462 0.0351742 0.216232
602 2 0.209301 0.150949 0.253301
151 1 0.978065 0.152683 0.253316
667 2 0.11731 0.0466619 0.238571
152 1 0.109041 0.0730292 0.28209
675 2 0.109337 0.257986 0.282095
153 1 0.377025 0.120095 0.263269
177 1 0.531744 0.0706854 0.283168
201 1 0.266607 0.04182 0.286546
647 2 0.628499 0.0671596 0.24902
131 1 0.702833 0.141764 0.284079
138 1 0.709456 0.270765 0.268586
124 1 0.799067 0.16831 0.252917
623 2 0.90921 0.303283 0.261942
175 1 0.931247 0.0537607 0.280981
172 1 0.994261 0.202665 0.297998
650 2 0.209105 0.373013 0.29671
106 1 0.0663117 0.331653 0.313665
140 1 0.0704016 0.270826 0.242708
636 2 0.255954 0.527618 0.293319
166 1 0.114531 0.498832 0.271881
142 1 0.403403 0.392974 0.247808
606 2 0.19497 0.371708 0.256084
137 1 0.519887 0.219038 0.279566
612 2 0.391264 0.324797 0.286847
637 2 0.572406 0.423851 0.275984
634 2 0.707016 0.420706 0.250566
119 1 0.818197 0.376853 0.27942
109 1 0.808879 0.327866 0.231727
640 2 0.843383 0.206559 0.286161
145 1 0.00119838 0.394367 0.280014
584 2 0.962951 0.531594 0.3046
146 1 0.222087 0.623957 0.256716
121 1 0.129566 0.750949 0.271118
641 2 0.243183 0.676628 0.295116
616 2 0.362712 0.698181 0.270476
613 2 0.421583 0.705755 0.237313
148 1 0.392751 0.483365 0.296013
624 2 0.4445 0.812186 0.285281
619 2 0.497702 0.663413 0.293175
114 1 0.458882 0.530138 0.26351
665 2 0.550772 0.643291 0.228561
115 1 0.647119 0.58885 0.263592
129 1 0.634111 0.73353 0.290894
639 2 0.786024 0.67886 0.259713
135 1 0.906294 0.545762 0.266315
618 2 0.0147594 0.669649 0.279949
620 2 0.782427 0.557212 0.287674
672 2 0.241005 0.769874 0.247158
648 2 0.0431711 0.867095 0.260658
642 2 0.217904 0.929742 0.250298
118 1 0.40578 0.863014 0.24564
696 2 0.267777 0.850192 0.281379
673 2 0.378815 0.947033 0.276585
160 1 0.668257 0.978236 0.285102
103 1 0.583303 0.923568 0.253929
670 2 0.564181 0.770636 0.258044
614 2 0.773445 0.0129583 0.260302
630 2 0.545869 0.807674 0.319344
621 2 0.934671 0.968577 0.243677
123 1 0.743744 0.83916 0.269511
155 1 0.816619 0.944567 0.294546
625 2 0.913319 0.807634 0.264896
651 2 0.135917 0.157004 0.316474
182 1 0.00165435 0.190205 0.336801
197 1 0.285218 0.204595 0.294755
662 2 0.365674 0.281038 0.324827
183 1 0.449131 0.151298 0.311715
706 2 0.28877 0.15098 0.330853
627 2 0.642074 0.0640059 0.315348
655 2 0.709366 0.103528 0.360792
133 1 0.570961 0.210988 0.336834
126 1 0.763794 0.194665 0.321092
180 1 0.782065 0.039356 0.326441
680 2 0.86335 0.143749 0.352241
646 2 0.00644667 0.0519449 0.315977
652 2 0.909681 0.320175 0.319585
136 1 0.288113 0.447153 0.330066
187 1 0.192349 0.298767 0.331208
156 1 0.0327607 0.465632 0.343274
631 2 0.183636 0.550473 0.377246
158 1 0.528012 0.304463 0.311228
643 2 0.528793 0.519612 0.307492
217 1 0.48701 0.394194 0.340017
653 2 0.688123 0.341133 0.305628
664 2 0.643822 0.346835 0.343704
169 1 0.671554 0.519629 0.310822
161 1 0.843435 0.468647 0.327118
661 2 0.106038 0.483042 0.312593
167 1 0.236836 0.581014 0.33987
691 2 0.250347 0.763332 0.324819
645 2 0.0798677 0.618889 0.333286
143 1 0.442703 0.5583 0.334344
168 1 0.374108 0.68753 0.327059
676 2 0.728586 0.751543 0.338463
644 2 0.586096 0.521272 0.343614
170 1 0.584654 0.677896 0.338534
130 1 0.773827 0.622182 0.332385
666 2 0.888744 0.57524 0.358051
199 1 0.824342 0.703527 0.371353
171 1 0.0883712 0.769659 0.309476
176 1 0.112002 0.924296 0.292071
231 1 0.216524 0.9211 0.317947
247 1 0.00604656 0.905488 0.330531
147 1 0.36544 0.988507 0.316649
697 2 0.399212 0.845862 0.318706
154 1 0.457393 0.955761 0.344489
164 1 0.708446 0.850113 0.311466
149 1 0.537886 0.951214 0.304135
191 1 0.906285 0.720331 0.328294
649 2 0.961296 0.907235 0.289818
674 2 0.740586 0.852475 0.379354
629 2 0.828019 0.743127 0.294085
196 1 0.819713 0.869612 0.342117
657 2 0.126151 0.149067 0.360822
212 1 0.085098 0.0231884 0.408454
682 2 0.211038 0.0809488 0.387597
633 2 0.447468 0.234406 0.358094
188 1 0.37092 0.124478 0.384957
678 2 0.268991 0.231243 0.366419
658 2 0.328783 0.0367171 0.354279
190 1 0.518275 0.0884185 0.359236
159 1 0.66442 0.20771 0.381715
165 1 0.630903 0.0984687 0.410932
679 2 0.824589 0.129969 0.388399
677 2 0.986082 0.13439 0.386259
660 2 0.954477 0.987794 0.39319
654 2 0.826614 0.985655 0.36799
132 1 0.184272 0.368313 0.368141
687 2 0.0138651 0.297613 0.371848
688 2 0.23759 0.372871 0.412236
736 2 0.150821 0.222594 0.403
686 2 0.353698 0.365003 0.36829
683 2 0.496396 0.185624 0.402395
717 2 0.428847 0.324729 0.413102
692 2 0.475665 0.453815 0.378827
213 1 0.296398 0.238482 0.405263
184 1 0.770983 0.310757 0.414493
189 1 0.533822 0.317483 0.381437
669 2 0.655298 0.423314 0.383726
185 1 0.776134 0.265017 0.362218
699 2 0.90384 0.405523 0.355638
656 2 0.906539 0.26048 0.394829
693 2 0.821895 0.419571 0.389521
192 1 0.0358207 0.552698 0.371024
220 1 0.168226 0.692629 0.35878
203 1 0.253158 0.623319 0.410765
222 1 0.146266 0.722354 0.400087
721 2 0.422295 0.569173 0.414765
162 1 0.345564 0.541075 0.381643
173 1 0.518859 0.648322 0.372128
223 1 0.315397 0.720147 0.370474
193 1 0.44858 0.719837 0.405708
722 2 0.301826 0.785381 0.417681
195 1 0.680584 0.651235 0.368391
663 2 0.579291 0.495074 0.412247
723 2 0.68003 0.690762 0.404644
244 1 0.746725 0.51214 0.358492
186 1 0.902511 0.611313 0.395189
200 1 0.817757 0.788816 0.405233
194 1 0.748248 0.566455 0.394031
216 1 0.995009 0.729643 0.363682
207 1 0.180097 0.00282959 0.35304
720 2 0.123297 0.822121 0.341489
221 1 0.0950595 0.92621 0.378247
725 2 0.227089 0.827219 0.378727
198 1 0.445533 0.793442 0.357827
178 1 0.316792 0.874014 0.351753
698 2 0.445078 0.000223662 0.388473
202 1 0.383214 0.854884 0.392924
628 2 0.639972 0.938862 0.341789
174 1 0.573842 0.836369 0.382466
703 2 0.596785 0.00591158 0.380304
700 2 0.991932 0.0398661 0.35765
724 2 0.726046 0.989579 0.401006
225 1 0.943161 0.87299 0.367876
745 2 0.977297 0.783915 0.409471
236 1 0.14335 0.10059 0.440041
235 1 0.0286795 0.107808 0.466169
211 1 0.0211129 0.220415 0.419072
261 1 0.269921 0.194028 0.466512
707 2 0.316179 0.118934 0.426687
208 1 0.437144 0.0349704 0.426736
233 1 0.28448 0.0363238 0.460909
214 1 0.401434 0.13387 0.474147
179 1 0.770621 0.166617 0.427606
729 2 0.538391 0.0918665 0.446365
684 2 0.508522 0.260622 0.447738
659 2 0.671718 0.240823 0.448843
705 2 0.734596 0.104753 0.47431
690 2 0.904906 0.0981863 0.430724
210 1 0.87976 0.142807 0.464777
710 2 0.0448792 0.391787 0.400628
711 2 0.103727 0.399438 0.437552
181 1 0.00847359 0.249125 0.464401
232 1 0.166289 0.260383 0.443878
238 1 0.3476 0.288005 0.447121
242 1 0.226897 0.430873 0.46208
239 1 0.352484 0.444749 0.437228
694 2 0.44791 0.593973 0.461908
689 2 0.565217 0.346422 0.420343
734 2 0.659423 0.406053 0.458382
718 2 0.716992 0.460932 0.428375
739 2 0.482398 0.441435 0.452365
709 2 0.892743 0.307422 0.442603
215 1 0.934231 0.469646 0.424742
240 1 0.812594 0.4661 0.460161
237 1 0.0932698 0.553675 0.412532
695 2 0.0914724 0.758879 0.44004
246 1 0.97787 0.720169 0.478372
262 1 0.0807156 0.527138 0.464453
218 1 0.366635 0.688647 0.441868
716 2 0.255053 0.572546 0.451031
748 2 0.561641 0.686789 0.471834
668 2 0.570192 0.712744 0.430284
737 2 0.592435 0.545273 0.452913
296 1 0.00683243 0.654312 0.424851
275 1 0.880507 0.611381 0.449301
719 2 0.717036 0.657735 0.448603
300 1 0.813518 0.728991 0.48528
257 1 0.151455 0.940434 0.45432
266 1 0.276829 0.788695 0.463082
746 2 0.143704 0.884174 0.418789
206 1 0.131307 0.816685 0.482504
708 2 0.296285 0.912203 0.438969
702 2 0.287407 0.965332 0.398745
727 2 0.449081 0.930456 0.455963
227 1 0.337774 0.900581 0.487953
741 2 0.440788 0.778338 0.463955
204 1 0.565043 0.926197 0.413647
243 1 0.57033 0.840761 0.455378
229 1 0.692188 0.820369 0.423759
749 2 0.67472 0.99311 0.442364
224 1 0.766401 0.877528 0.458402
681 2 0.00565729 0.981709 0.43974
209 1 0.85161 0.944925 0.430658
205 1 0.887989 0.785464 0.449094
755 2 0.0144975 0.860271 0.459692
726 2 0.159178 0.0576905 0.480223
760 2 0.155221 0.0525677 0.52281
251 1 0.0420947 0.932822 0.494121
735 2 0.325543 0.0639857 0.500331
733 2 0.451374 0.987578 0.499266
753 2 0.473492 0.207628 0.505462
732 2 0.312525 0.210643 0.513638
259 1 0.558326 0.331003 0.477208
264 1 0.587128 0.181621 0.478101
778 2 0.660069 0.252886 0.503298
284 1 0.687867 0.0633192 0.515418
799 2 0.893238 0.0255689 0.513151
715 2 0.899484 0.973611 0.468352
759 2 0.80497 0.211039 0.514277
265 1 0.00281055 0.117713 0.503628
272 1 0.110203 0.384873 0.477653
762 2 0.0577456 0.423398 0.511403
765 2 0.146871 0.209331 0.488177
234 1 0.372856 0.33477 0.481241
728 2 0.434169 0.353523 0.519889
714 2 0.356986 0.492507 0.478193
763 2 0.227307 0.355307 0.503198
270 1 0.616093 0.404268 0.509459
790 2 0.80075 0.342771 0.534908
230 1 0.77089 0.303017 0.472415
740 2 0.95776 0.390485 0.470809
685 2 0.767073 0.433561 0.498155
260 1 0.909684 0.313159 0.501007
767 2 0.080126 0.64608 0.501418
712 2 0.203883 0.538475 0.491698
273 1 0.152689 0.517531 0.534987
267 1 0.15693 0.688876 0.468527
278 1 0.228661 0.7318 0.503685
713 2 0.324502 0.660773 0.480744
269 1 0.454848 0.518868 0.515606
747 2 0.320713 0.453879 0.516065
248 1 0.29732 0.611596 0.522321
249 1 0.488158 0.649212 0.501967
738 2 0.577472 0.522146 0.490926
779 2 0.647765 0.66487 0.504281
744 2 0.733131 0.514171 0.526036
245 1 0.763307 0.582506 0.480068
761 2 0.900418 0.455983 0.515949
241 1 0.93326 0.554596 0.490117
770 2 0.937032 0.665583 0.51857
254 1 0.766165 0.698704 0.525566
731 2 0.0360825 0.968138 0.534563
751 2 0.196139 0.931484 0.501259
701 2 0.0356222 0.779086 0.513913
752 2 0.389635 0.742468 0.512618
704 2 0.677024 0.830106 0.489999
255 1 0.618085 0.928465 0.524292
228 1 0.616034 0.983672 0.481526
772 2 0.538541 0.83508 0.499342
250 1 0.777041 0.969523 0.490103
774 2 0.890236 0.857632 0.49778
291 1 0.151799 0.193887 0.597545
256 1 0.96161 0.142991 0.539204
771 2 0.131373 0.11922 0.562075
757 2 0.299912 0.0997275 0.536539
758 2 0.462355 0.133913 0.571923
310 1 0.482683 0.078359 0.53146
289 1 0.603551 0.175881 0.532458
804 2 0.660151 0.0622618 0.561683
321 1 0.968498 0.156296 0.580904
780 2 0.810498 0.0695421 0.541815
290 1 0.73478 0.215245 0.550005
776 2 0.88696 0.258426 0.560188
800 2 0.00396866 0.966278 0.573543
785 2 0.833384 0.0126024 0.585481
742 2 0.261755 0.362884 0.54402
788 2 0.192018 0.238685 0.539112
298 1 0.252836 0.455149 0.57036
287 1 0.0353748 0.271555 0.520243
764 2 0.372707 0.246655 0.55727
792 2 0.376367 0.523285 0.549628
832 2 0.222548 0.285005 0.576247
263 1 0.415875 0.421467 0.576819
294 1 0.514312 0.291443 0.552148
789 2 0.642744 0.338266 0.573378
219 1 0.55902 0.431911 0.551499
773 2 0.636787 0.51491 0.607961
809 2 0.583965 0.202461 0.583949
791 2 0.936661 0.408355 0.556269
286 1 0.05119 0.260822 0.565984
293 1 0.147515 0.59188 0.570556
295 1 0.113625 0.379906 0.553608
766 2 0.156581 0.671179 0.538282
775 2 0.998673 0.676783 0.573934
798 2 0.190187 0.779347 0.569378
743 2 0.461449 0.651597 0.550044
253 1 0.302326 0.655756 0.569471
768 2 0.526627 0.555154 0.574896
322 1 0.434559 0.651389 0.585272
769 2 0.606703 0.6093 0.546731
794 2 0.694956 0.505417 0.571078
303 1 0.617277 0.698814 0.601527
299 1 0.837901 0.599528 0.545549
274 1 1.00169 0.544177 0.547247
366 1 0.850272 0.519357 0.578405
285 1 0.779857 0.674716 0.579755
226 1 0.855068 0.790811 0.55718
750 2 0.0644295 0.813284 0.549949
793 2 0.226782 0.821731 0.53568
822 2 0.150828 0.962115 0.559662
309 1 0.481149 0.885804 0.53784
282 1 0.49956 0.0114437 0.601028
258 1 0.344508 0.916052 0.52356
283 1 0.342798 0.821959 0.570764
314 1 0.757997 0.860409 0.520038
288 1 0.538363 0.778673 0.575399
308 1 0.592348 0.908622 0.56336
279 1 0.559713 0.748179 0.533688
783 2 0.762071 0.903634 0.562448
823 2 0.68071 0.747273 0.55874
754 2 0.943789 0.85134 0.607659
730 2 0.913811 0.910498 0.547201
252 1 0.29132 0.0547977 0.57299
302 1 0.118965 0.0874941 0.634655
276 1 0.212469 0.231004 0.63647
796 2 0.0999617 0.022676 0.597848
326 1 0.238926 0.0654335 0.616428
756 2 0.324305 0.191441 0.595027
268 1 0.45818 0.225288 0.606566
803 2 0.394342 0.0939938 0.620069
307 1 0.465968 0.172111 0.670146
335 1 0.535387 0.0895164 0.633623
339 1 0.612853 0.233999 0.638971
304 1 0.680742 0.0328387 0.650883
784 2 0.853984 0.21063 0.617043
826 2 0.660529 0.108255 0.612637
781 2 0.00832067 0.222218 0.621604
331 1 0.114614 0.359129 0.594561
320 1 0.953619 0.388219 0.601104
797 2 0.0903545 0.499493 0.6205
817 2 0.240637 0.38072 0.63558
333 1 0.374232 0.249291 0.642291
782 2 0.501097 0.335175 0.629488
787 2 0.33568 0.342029 0.602057
319 1 0.532786 0.414385 0.601324
834 2 0.677261 0.373619 0.632511
306 1 0.772499 0.182315 0.587307
313 1 0.786228 0.457128 0.610886
311 1 0.796563 0.361122 0.586204
840 2 0.846551 0.361352 0.635622
816 2 0.00942743 0.379114 0.636458
342 1 0.192211 0.582059 0.604095
814 2 0.159227 0.734232 0.609155
292 1 0.348028 0.54965 0.601131
323 1 0.386341 0.483922 0.635368
818 2 0.493536 0.572544 0.614572
777 2 0.33496 0.626805 0.633987
338 1 0.712549 0.517315 0.649375
324 1 0.582311 0.656774 0.636623
839 2 0.718025 0.767587 0.651347
297 1 0.91453 0.642186 0.604186
315 1 0.922072 0.517861 0.627727
813 2 0.736251 0.63967 0.62084
349 1 0.00975651 0.518547 0.583247
271 1 0.0842809 0.854357 0.587257
821 2 0.22365 0.907635 0.598063
277 1 0.405401 0.96835 0.559901
348 1 0.536893 0.803812 0.613753
329 1 0.493357 0.932146 0.631029
842 2 0.346828 0.758649 0.608136
808 2 0.652502 0.975595 0.595148
325 1 0.706539 0.822931 0.593654
374 1 0.665534 0.885637 0.626576
849 2 0.941412 0.953908 0.642782
824 2 0.801351 -0.00398336 0.625791
280 1 0.951087 0.062 0.613855
845 2 0.820323 0.758691 0.616689
825 2 0.93759 0.784033 0.6455
332 1 0.129683 0.109017 0.69655
802 2 0.0813876 0.0166616 0.662545
352 1 -0.00153314 0.208325 0.694124
872 2 0.232358 0.00492535 0.652612
833 2 0.286026 0.145772 0.669785
851 2 0.346733 0.138693 0.708401
358 1 0.516486 0.157533 0.71442
334 1 0.422153 0.033988 0.690219
372 1 0.38592 0.0282646 0.653754
835 2 0.673032 0.203822 0.685629
376 1 0.812637 0.142949 0.684784
864 2 0.675763 0.137475 0.731463
281 1 0.934226 0.105054 0.647822
305 1 0.894609 0.233359 0.65457
846 2 0.948161 0.0478178 0.689302
810 2 0.0472963 0.212103 0.655734
801 2 0.119399 0.33176 0.660669
829 2 0.222051 0.314838 0.688947
812 2 0.17342 0.476276 0.680673
805 2 0.121865 0.298524 0.715994
807 2 0.441344 0.287514 0.697188
347 1 0.38731 0.389702 0.665721
312 1 0.50762 0.468995 0.690139
330 1 0.58305 0.321403 0.66633
365 1 0.744053 0.168134 0.645087
837 2 0.552991 0.482746 0.641055
844 2 0.682048 0.476461 0.686337
357 1 0.0154533 0.37795 0.685035
340 1 0.756937 0.296813 0.670651
811 2 0.868115 0.452022 0.667502
795 2 0.0242394 0.657501 0.638588
362 1 0.0531117 0.510321 0.658005
341 1 0.219646 0.543967 0.642303
891 2 0.930488 0.670045 0.680263
317 1 0.474264 0.596994 0.665205
316 1 0.488685 0.79304 0.678826
862 2 0.320962 0.543209 0.669328
847 2 0.270245 0.700444 0.689236
343 1 0.610123 0.701991 0.674206
860 2 0.833548 0.627739 0.647589
848 2 0.77018 0.62674 0.684711
861 2 0.843167 0.553786 0.716287
815 2 0.0911088 0.812614 0.655192
328 1 0.214766 0.720891 0.644405
346 1 0.234489 0.843297 0.675047
820 2 0.0669943 0.909266 0.624035
867 2 0.135103 0.743626 0.701926
327 1 0.318771 0.874247 0.630753
819 2 0.427103 0.755176 0.642619
827 2 0.247301 0.0300169 0.691189
873 2 0.375066 0.899989 0.676692
838 2 0.636801 0.903327 0.7075
301 1 0.565249 0.978731 0.671485
350 1 0.775932 0.91441 0.658168
843 2 0.578059 0.835343 0.652247
375 1 0.693481 0.75355 0.701838
355 1 0.655231 0.0520037 0.696686
836 2 0.836553 0.817874 0.684279
850 2 0.764006 0.937905 0.700651
865 2 0.956074 0.884948 0.67815
852 2 0.211855 0.949647 0.74986
881 2 0.17996 0.111488 0.775141
377 1 0.162633 0.116185 0.73584
353 1 0.470409 0.267765 0.743729
854 2 0.328844 0.189628 0.746538
389 1 0.49145 0.00938121 0.762706
354 1 0.567546 0.0029496 0.731773
909 2 0.571689 0.142655 0.761853
859 2 0.730483 0.289132 0.723122
875 2 0.754 0.994018 0.743198
871 2 0.880228 0.313815 0.695159
855 2 0.891193 0.0890137 0.720973
876 2 0.0201413 0.189262 0.74183
863 2 0.16792 0.456964 0.726977
786 2 0.262495 0.332189 0.729992
369 1 0.269734 0.566217 0.745664
384 1 0.984902 0.325265 0.759265
806 2 0.318398 0.422864 0.703784
364 1 0.501464 0.403011 0.723051
359 1 0.354921 0.348647 0.758553
360 1 0.601689 0.319211 0.704754
370 1 0.637347 0.388896 0.742548
410 1 0.541251 0.45929 0.77764
336 1 0.677197 0.566725 0.772489
889 2 0.685137 0.235979 0.75747
390 1 0.852524 0.230065 0.74055
361 1 0.727007 0.462526 0.717763
351 1 0.899835 0.410802 0.730996
416 1 0.0126283 0.512747 0.695196
368 1 0.107394 0.641991 0.672768
424 1 0.051566 0.637749 0.710816
373 1 0.246123 0.785487 0.733097
400 1 0.416849 0.499748 0.739984
828 2 0.335962 0.571877 0.708271
874 2 0.497721 0.586895 0.719476
345 1 0.723981 0.649898 0.731436
318 1 0.634473 0.595732 0.705153
870 2 0.639589 0.736869 0.753937
337 1 0.540503 0.758277 0.720199
386 1 0.776561 0.495242 0.753689
344 1 0.852659 0.719362 0.716454
858 2 0.999289 0.546419 0.738491
473 1 0.846219 0.665319 0.758878
841 2 0.117602 0.911767 0.693247
830 2 0.0162818 0.0234019 0.72639
367 1 0.0959708 0.882673 0.73146
898 2 0.385662 0.786237 0.70723
886 2 0.278903 0.903768 0.711702
900 2 0.344233 0.828129 0.762354
423 1 0.41345 0.919628 0.729449
404 1 0.530435 0.872078 0.75094
422 1 0.751799 0.833393 0.734503
371 1 0.879867 0.906465 0.724893
398 1 0.988186 0.719604 0.748511
387 1 0.991147 0.796019 0.717084
877 2 0.0365412 0.182919 0.778872
892 2 0.290638 0.155601 0.799675
897 2 0.0728917 0.000648522 0.760319
880 2 0.00366551 0.20487 0.820497
397 1 0.339695 0.0235307 0.761892
882 2 0.433014 0.165739 0.775276
941 2 0.420413 0.203978 0.821367
382 1 0.438791 0.0264763 0.799351
869 2 0.603547 0.0320558 0.79739
853 2 0.741337 0.100311 0.770524
924 2 0.578901 0.176626 0.805476
920 2 0.723866 0.108249 0.830762
356 1 0.926909 0.0621312 0.772546
405 1 0.889886 0.122565 0.816387
879 2 0.87365 0.194672 0.781318
435 1 0.954907 0.350274 0.795991
857 2 0.206668 0.268456 0.7664
381 1 0.119982 0.454053 0.766713
412 1 0.161681 0.254153 0.809289
411 1 0.136764 0.429098 0.809759
393 1 0.286187 0.340501 0.796864
884 2 0.442499 0.354043 0.802493
414 1 0.571059 0.284434 0.776875
930 2 0.724451 0.21796 0.797044
964 2 0.593827 0.336554 0.814808
391 1 0.685197 0.430362 0.791205
385 1 0.80196 0.332409 0.769362
460 1 0.796019 0.345346 0.809478
831 2 0.143777 0.643845 0.741539
363 1 0.0599838 0.605782 0.775179
940 2 0.11633 0.678818 0.805755
866 2 0.283883 0.692197 0.765103
887 2 0.361394 0.46745 0.778506
408 1 0.224889 0.555322 0.78952
893 2 0.507756 0.617864 0.756995
449 1 0.391327 0.62618 0.78797
868 2 0.562773 0.620806 0.793019
394 1 0.538408 0.512296 0.824906
415 1 0.682909 0.584615 0.819087
406 1 0.936651 0.691809 0.789666
885 2 0.937128 0.500152 0.775062
890 2 0.798217 0.531829 0.800125
856 2 0.762638 0.679282 0.786376
896 2 0.989316 0.867156 0.761989
917 2 0.134408 0.788279 0.767364
392 1 0.104172 0.876374 0.795407
910 2 0.234417 0.978044 0.792003
383 1 0.292312 0.801366 0.799529
430 1 0.480553 0.756078 0.770476
378 1 0.322933 0.948178 0.819781
895 2 0.641519 0.766032 0.790298
379 1 0.660946 0.927091 0.767763
949 2 0.542542 0.069092 0.835736
919 2 0.524326 0.889831 0.791747
396 1 0.835112 0.896351 0.765558
401 1 0.943205 0.927685 0.799013
425 1 0.81067 0.00446643 0.794754
899 2 0.742894 0.879716 0.813089
420 1 0.839174 0.788156 0.822271
413 1 0.0508743 0.072738 0.809379
908 2 0.126492 0.198324 0.883019
431 1 0.240181 0.0858211 0.865341
916 2 0.042775 0.952884 0.829338
388 1 0.379858 0.0761864 0.836183
878 2 0.256988 0.172701 0.835834
434 1 0.387377 0.0249162 0.872555
934 2 0.384352 0.207668 0.866896
883 2 0.536523 0.218943 0.850824
904 2 0.652728 0.947073 0.839283
481 1 0.624375 0.113124 0.866919
421 1 0.825421 0.0087251 0.834417
402 1 0.983678 0.1417 0.887169
426 1 0.994753 0.242849 0.858186
975 2 0.83732 0.128729 0.865425
922 2 0.97235 0.0702005 0.852431
912 2 0.0576163 0.513954 0.858951
932 2 0.135632 0.277321 0.846701
443 1 0.286118 0.334348 0.840368
937 2 0.255806 0.280949 0.876771
418 1 0.202878 0.418993 0.867802
984 2 0.456875 0.342117 0.837058
439 1 0.420307 0.346073 0.886573
409 1 0.576081 0.309116 0.87977
888 2 0.698808 0.259365 0.840983
445 1 0.615401 0.393746 0.848347
407 1 0.0250123 0.38047 0.829357
417 1 0.860416 0.258758 0.84394
905 2 0.868817 0.399841 0.861254
441 1 0.0281158 0.56723 0.816541
901 2 0.195846 0.535323 0.833741
902 2 0.131865 0.673153 0.849588
429 1 0.320384 0.468305 0.818281
913 2 0.292075 0.662936 0.817463
440 1 0.329655 0.5205 0.865294
894 2 0.249818 0.663928 0.86742
943 2 0.421259 0.671298 0.854744
939 2 0.549088 0.658622 0.838248
914 2 0.620114 0.754934 0.865079
915 2 0.613591 0.557124 0.866479
395 1 0.738496 0.714289 0.840374
933 2 0.467642 0.479701 0.859667
935 2 0.754615 0.464372 0.830953
944 2 0.928055 0.497682 0.838337
497 1 0.978119 0.641181 0.853424
972 2 0.894215 0.629976 0.825239
945 2 0.876718 0.748834 0.864192
447 1 0.789811 0.600042 0.867604
942 2 0.195296 0.863158 0.824195
452 1 0.132397 0.835099 0.85863
921 2 0.249812 0.935063 0.86837
911 2 0.00437403 0.770166 0.834789
990 2 0.107287 0.998949 0.871895
499 1 0.16863 0.0256808 0.83259
923 2 0.420876 0.798247 0.825677
380 1 0.470214 0.945526 0.844337
925 2 0.315726 0.804003 0.85926
399 1 0.617744 0.807472 0.826561
931 2 0.769788 0.838687 0.855341
428 1 0.927455 0.885672 0.847317
457 1 0.153541 0.101619 0.911947
996 2 0.110055 0.0656571 0.954145
446 1 0.419984 0.138152 0.949991
928 2 0.501301 0.16188 0.890894
988 2 0.306999 0.173206 0.8994
995 2 0.375642 0.0457168 0.917478
427 1 0.540095 0.03703 0.922825
459 1 0.736178 0.0245405 0.864151
450 1 0.525136 0.984459 0.879619
479 1 0.841645 0.227654 0.923083
496 1 0.583631 0.19154 0.924542
950 2 0.770661 0.0664923 0.902915
954 2 0.0361846 0.0158467 0.908418
983 2 0.987035 0.179142 0.926366
976 2 0.859767 0.288468 0.890153
470 1 0.129605 0.271198 0.924592
438 1 0.0760592 0.549137 0.901459
958 2 0.261256 0.35168 0.913191
456 1 0.385006 0.477317 0.906113