ITEM: TIMESTEP
12290
ITEM: NUMBER OF ATOMS
1000
ITEM: BOX BOUNDS pp pp pp
0.0000000000000000e+00 6.2996052494743662e+00
0.0000000000000000e+00 6.2996052494743662e+00
0.0000000000000000e+00 2.5198420997897465e+01
ITEM: ATOMS id type xs ys zs
46 1 0.0303175 0.0330216 0.0143337
13 1 0.123967 0.161439 0.0259289
16 1 0.0683331 0.230603 -0.000243757
528 2 0.159352 0.0772988 0.0669564
918 2 0.180196 0.0119739 0.0242085
28 1 0.262871 0.156919 0.0367806
498 1 0.359035 0.0244432 0.0308739
8 1 0.376527 0.145739 0.00398574
17 1 0.534715 0.18809 0.0578515
529 2 0.64369 0.206116 0.033023
571 2 0.496877 0.115625 0.0273879
486 1 0.0369727 0.185099 0.056234
507 2 0.842054 0.997588 0.0576149
27 1 0.791178 0.180725 0.0543528
71 1 0.868041 0.113823 0.0225578
510 2 0.151714 0.378607 0.0124578
532 2 0.0358063 0.579746 0.0296536
977 2 0.129784 0.316633 0.0511513
85 1 0.168528 0.485398 0.0364561
581 2 0.274081 0.323211 0.0476821
957 2 0.0757365 0.488552 0.0660063
454 1 0.401217 0.318551 0.0156875
489 1 0.308994 0.450674 0.000696484
512 2 0.424039 0.414764 0.0519767
573 2 0.548432 0.304746 0.022308
999 2 0.653011 0.436646 0.0256283
982 2 0.778906 0.316907 0.0326083
552 2 0.628381 0.576118 0.0523455
58 1 0.504997 0.467572 0.0157207
544 2 0.921274 0.272472 0.0294181
485 1 0.942259 0.441753 0.0267144
73 1 0.763066 0.479119 0.0505248
987 2 0.121725 0.681908 0.0114309
86 1 0.904336 0.558199 0.0494437
49 1 0.942835 0.708235 0.023927
63 1 0.383741 0.535867 0.0271288
963 2 0.250567 0.65986 0.0324345
514 2 0.368339 0.751544 0.0506136
506 2 0.632921 0.678572 0.0142654
33 1 0.676325 0.726457 0.0552657
947 2 0.55089 0.79221 0.0341053
31 1 0.725481 0.856931 0.986285
989 2 0.741248 0.565219 0.01479
961 2 0.891608 0.560629 0.991851
545 2 0.778782 0.766917 0.0162734
520 2 0.767621 0.610917 0.0713379
37 1 0.0412605 0.686933 0.0587916
525 2 0.132705 0.935758 0.0557593
524 2 0.0888966 0.823569 0.0330223
549 2 0.932821 0.856532 0.0374504
18 1 0.290352 0.899233 0.0344396
9 1 0.387733 0.729929 0.00794636
12 1 0.510704 0.923585 0.0388665
3 1 0.321112 0.0148379 0.990482
95 1 0.666017 0.876863 0.0235735
29 1 0.689959 0.0265241 0.0341185
548 2 0.605005 0.982593 0.0727061
21 1 0.829397 0.734784 0.0543915
468 1 0.820158 0.934996 0.0166623
560 2 0.262694 0.0472436 0.0983914
1 1 0.980944 0.188211 0.114837
57 1 0.119023 0.118925 0.104621
82 1 0.247902 0.259856 0.123739
48 1 0.463723 0.0328563 0.0678968
52 1 0.230718 0.188569 0.0817628
92 1 0.382937 0.147892 0.0838238
565 2 0.744647 0.0576072 0.125096
516 2 0.728672 0.052233 0.0801183
96 1 0.58731 0.135724 0.0938058
100 1 0.917483 0.0235791 0.0933495
598 2 0.815069 0.171517 0.0988098
41 1 0.916351 0.24092 0.0733112
11 1 0.105848 0.257074 0.0914989
985 2 0.176369 0.41962 0.0953544
590 2 0.0118965 0.321984 0.126072
526 2 0.408628 0.249976 0.048411
7 1 0.320478 0.458156 0.0766155
527 2 0.347504 0.325918 0.0896739
600 2 0.604852 0.352922 0.054741
503 2 0.517936 0.286964 0.0956848
521 2 0.692122 0.281737 0.0910002
79 1 0.629941 0.36508 0.122896
558 2 0.529868 0.440225 0.091511
77 1 0.920858 0.516874 0.091659
35 1 0.836418 0.406845 0.0761606
981 2 0.979621 0.372719 0.0586729
533 2 0.77633 0.466748 0.113344
551 2 0.252196 0.571684 0.103964
65 1 0.166317 0.620969 0.060975
517 2 0.080679 0.608676 0.0994784
70 1 0.0705656 0.819415 0.0908826
523 2 0.232729 0.716681 0.090008
547 2 0.430271 0.553429 0.0938621
56 1 0.352946 0.617531 0.063436
537 2 0.388561 0.754559 0.101198
998 2 0.504543 0.670887 0.0633245
519 2 0.526747 0.666515 0.110074
511 2 0.688259 0.463977 0.0842176
15 1 0.652489 0.687439 0.0904266
50 1 0.605604 0.521604 0.118603
64 1 0.784366 0.626033 0.112909
40 1 0.923332 0.671447 0.0903976
997 2 0.205591 0.802937 0.0562901
967 2 0.00616248 0.0412243 0.0505123
546 2 0.0550047 0.986472 0.0851764
23 1 0.287349 0.932647 0.0761496
559 2 0.429598 0.884747 0.0700861
577 2 0.497298 0.849702 0.107015
597 2 0.274753 0.781906 0.125345
971 2 0.598386 0.823547 0.0748215
543 2 0.481951 0.0361024 0.107012
513 2 0.643751 0.94188 0.107449
587 2 0.699844 0.795934 0.132633
534 2 0.749222 0.870541 0.0581862
39 1 0.925708 0.870938 0.0803547
502 2 0.787914 0.766881 0.092422
575 2 0.810612 0.897541 0.109045
566 2 0.00771568 0.128166 0.176388
101 1 0.0163904 0.276245 0.168708
583 2 0.209428 0.0846966 0.133948
93 1 0.200307 0.218402 0.1622
589 2 0.343991 0.160015 0.143625
599 2 0.499509 0.159173 0.125721
99 1 0.617709 0.078179 0.152828
34 1 0.688926 0.193355 0.124235
80 1 0.878133 0.23897 0.157618
554 2 0.829152 0.0387879 0.169446
26 1 0.732403 0.160449 0.164959
576 2 0.884766 0.0998294 0.131412
83 1 0.132444 0.327401 0.145029
125 1 0.0532079 0.47779 0.11954
531 2 0.445326 0.459801 0.18564
538 2 0.304031 0.437645 0.118363
561 2 0.327186 0.410843 0.159941
78 1 0.394294 0.272587 0.12192
62 1 0.456351 0.436194 0.123778
76 1 0.481607 0.319661 0.148984
604 2 0.769151 0.327677 0.141553
557 2 0.557366 0.456769 0.15735
671 2 0.62693 0.278158 0.155727
89 1 0.858245 0.323055 0.111634
582 2 0.828507 0.501679 0.181126
564 2 0.908548 0.407968 0.149746
553 2 0.0143287 0.669477 0.130319
91 1 0.165916 0.609788 0.131464
122 1 0.0438561 0.682891 0.168472
38 1 0.381599 0.678384 0.135942
141 1 0.31259 0.564906 0.156962
97 1 0.2556 0.715376 0.163165
509 2 0.488156 0.56871 0.142366
116 1 0.4312 0.634156 0.178161
14 1 0.5799 0.583171 0.175128
66 1 0.704046 0.656575 0.147073
139 1 0.550482 0.699949 0.150422
10 1 0.888299 0.76282 0.122434
94 1 0.723281 0.481103 0.14963
594 2 0.910084 0.537944 0.132209
111 1 0.0211268 0.521445 0.161311
615 2 0.856281 0.642838 0.151303
44 1 0.0128488 0.0372625 0.131515
550 2 0.119198 0.787753 0.14133
42 1 0.980986 0.90332 0.119532
541 2 0.99394 0.978086 0.167096
542 2 0.202406 0.914689 0.115105
555 2 0.354266 0.938867 0.111536
53 1 0.277289 0.932215 0.148339
88 1 0.389302 0.837423 0.139627
536 2 0.410601 0.936719 0.180068
59 1 0.717243 0.933589 0.148412
90 1 0.545937 0.900959 0.144167
539 2 0.453223 0.0221259 0.145021
98 1 0.96682 0.81829 0.155036
60 1 0.860155 0.94748 0.138624
540 2 0.752937 0.818185 0.16575
610 2 0.043924 0.234987 0.209896
118 1 0.153604 0.0939482 0.177534
107 1 0.222914 0.358389 0.184464
128 1 0.170971 0.0683974 0.220356
638 2 0.249573 0.227821 0.204234
74 1 0.346316 0.105741 0.194559
112 1 0.489237 0.144688 0.164254
110 1 0.460676 0.208307 0.206796
603 2 0.316545 0.0719625 0.233665
157 1 0.548749 0.0705184 0.199598
55 1 0.72042 0.0776882 0.202689
105 1 0.906524 0.0568855 0.203589
109 1 0.871035 0.209866 0.197559
605 2 0.879508 0.132822 0.233003
595 2 0.172803 0.481655 0.154372
54 1 0.0685585 0.406802 0.183043
535 2 0.0811046 0.51701 0.213369
651 2 0.172486 0.359897 0.227503
556 2 0.393575 0.304046 0.182251
586 2 0.498418 0.380344 0.226967
611 2 0.335169 0.355693 0.214398
84 1 0.567982 0.330394 0.186922
608 2 0.443724 0.525683 0.217139
607 2 0.598268 0.254549 0.22249
580 2 0.914324 0.362936 0.191153
150 1 0.750784 0.31216 0.189782
81 1 0.753004 0.442096 0.215846
585 2 0.742982 0.218289 0.223845
622 2 0.116301 0.657251 0.208094
606 2 0.222703 0.526457 0.232166
632 2 0.168529 0.601435 0.176576
87 1 0.295556 0.511636 0.191976
591 2 0.222995 0.696038 0.235646
72 1 0.306895 0.639477 0.209319
570 2 0.514303 0.687426 0.211046
635 2 0.609966 0.551161 0.214299
563 2 0.744585 0.643177 0.188284
593 2 0.64413 0.705797 0.226969
104 1 0.951199 0.590751 0.19486
108 1 0.885639 0.731589 0.185694
665 2 0.7697 0.60643 0.224629
596 2 0.0611948 0.978835 0.199842
642 2 0.0403389 0.78784 0.199938
578 2 0.137034 0.896587 0.173958
616 2 0.195606 0.799165 0.205366
127 1 0.256062 0.949167 0.191355
613 2 0.336897 0.774497 0.219024
562 2 0.383195 0.771387 0.176661
134 1 0.425002 0.968407 0.220754
69 1 0.534933 0.833846 0.178618
68 1 0.677958 0.953685 0.182035
572 2 0.636603 0.917703 0.220457
144 1 0.642855 0.730412 0.188724
149 1 0.513989 0.84709 0.221582
117 1 0.781844 0.973165 0.226401
530 2 0.874533 0.905898 0.192419
648 2 0.868248 0.723415 0.229271
567 2 0.993156 0.887576 0.235966
113 1 0.746482 0.811925 0.210257
602 2 0.254978 0.128948 0.266395
172 1 0.0754146 0.0512399 0.275722
102 1 0.0189352 0.0407965 0.24046
568 2 0.140937 0.907312 0.231609
176 1 0.197708 0.943194 0.281023
137 1 0.332718 0.26211 0.28562
124 1 0.453806 0.102219 0.258111
626 2 0.365381 0.206787 0.242117
612 2 0.478007 0.171307 0.298782
163 1 0.327457 0.148816 0.310945
579 2 0.623988 0.103987 0.232537
653 2 0.60919 0.098091 0.277677
151 1 0.744855 1.00301 0.262786
623 2 0.680037 0.22367 0.259496
138 1 0.515863 0.240732 0.258125
667 2 0.991257 0.217641 0.255972
614 2 0.911177 0.038934 0.285531
618 2 0.198668 0.438501 0.266769
569 2 0.156901 0.212568 0.234089
145 1 0.15378 0.269226 0.270809
135 1 0.0408984 0.423633 0.250447
119 1 0.0354209 0.302369 0.292936
140 1 0.304589 0.359962 0.252194
636 2 0.328278 0.465788 0.291723
675 2 0.443559 0.391299 0.268346
114 1 0.469507 0.327223 0.302168
637 2 0.605067 0.264712 0.301215
670 2 0.627647 0.357291 0.251152
123 1 0.588257 0.460799 0.292418
601 2 0.917384 0.313739 0.230283
652 2 0.834292 0.209974 0.262685
634 2 0.912985 0.49899 0.230223
129 1 0.804565 0.456848 0.282512
161 1 0.792252 0.352986 0.251042
620 2 0.0455179 0.644753 0.286262
609 2 0.135205 0.590618 0.260949
142 1 0.399425 0.66012 0.243112
624 2 0.295597 0.601111 0.266204
617 2 0.369872 0.503124 0.247724
146 1 0.447557 0.563352 0.28311
164 1 0.460008 0.706743 0.27916
67 1 0.523887 0.505682 0.253737
592 2 0.683466 0.496595 0.252456
115 1 0.587128 0.652581 0.258683
630 2 0.6903 0.595154 0.294461
169 1 0.0102095 0.661761 0.236192
629 2 0.851993 0.604622 0.261984
130 1 0.0455062 0.455311 0.297154
639 2 0.827026 0.709084 0.300917
120 1 0.105888 0.778402 0.252011
121 1 0.0240803 0.884699 0.275811
672 2 0.29094 0.85359 0.255736
247 1 0.149453 0.812003 0.297981
103 1 0.447928 0.846341 0.256465
153 1 0.337645 0.00115268 0.273064
696 2 0.30292 0.808576 0.291778
131 1 0.549708 0.980091 0.255942
647 2 0.605162 0.827351 0.253736
625 2 0.727068 0.854704 0.280657
160 1 0.754735 0.726946 0.255429
588 2 0.859943 0.901947 0.259074
621 2 0.923376 0.744279 0.266613
175 1 -0.00138314 0.0126352 0.314867
646 2 0.184499 0.232751 0.309138
680 2 0.164413 0.0543913 0.307924
185 1 0.0201741 0.188302 0.320577
197 1 0.450689 0.111459 0.335335
183 1 0.453398 0.0167207 0.295694
706 2 0.304221 0.111933 0.352438
640 2 0.584422 0.0952911 0.317507
627 2 0.722823 0.0612173 0.34074
126 1 0.728773 0.163851 0.302795
662 2 0.675531 0.251063 0.347444
180 1 0.880125 0.237851 0.303055
679 2 0.857828 0.0952496 0.319266
166 1 0.197593 0.373861 0.309988
106 1 0.160941 0.308674 0.342454
156 1 0.100993 0.471554 0.337772
661 2 0.295803 0.504825 0.329962
201 1 0.344501 0.278737 0.338501
650 2 0.532423 0.245202 0.336539
167 1 0.471037 0.365098 0.354827
158 1 0.611691 0.382767 0.331627
584 2 0.948146 0.410594 0.320117
687 2 0.856158 0.301546 0.344803
699 2 0.744395 0.320996 0.315712
666 2 0.87448 0.523126 0.334431
641 2 0.178407 0.563817 0.302744
191 1 0.982297 0.636459 0.32817
207 1 0.12559 0.716528 0.322114
720 2 0.31037 0.668826 0.341863
168 1 0.454828 0.482712 0.317884
697 2 0.373107 0.634533 0.307055
194 1 0.746487 0.491608 0.315316
619 2 0.533899 0.632679 0.303836
148 1 0.559891 0.540138 0.349193
170 1 0.745433 0.623702 0.336874
649 2 0.930082 0.567621 0.29557
700 2 0.996422 0.845663 0.345555
231 1 0.13838 0.898603 0.326825
147 1 0.463906 0.837752 0.293902
177 1 0.301141 0.982045 0.316019
691 2 0.251936 0.806527 0.334464
673 2 0.447864 0.749823 0.326142
702 2 0.228732 0.943921 0.355331
178 1 0.444347 0.921589 0.326999
658 2 0.587387 0.972515 0.341199
628 2 0.736585 0.0111078 0.303191
154 1 0.630805 0.746612 0.291228
190 1 0.583317 0.928671 0.299273
195 1 0.609605 0.720833 0.334342
152 1 0.983676 0.775844 0.307391
155 1 0.852807 0.868924 0.299392
655 2 0.703153 0.838143 0.323358
674 2 0.856492 0.741797 0.342776
182 1 0.155173 0.113388 0.34313
677 2 0.0809179 0.160099 0.371143
188 1 0.20509 0.048795 0.378255
136 1 0.44039 0.202634 0.366738
238 1 0.469377 0.0121526 0.362992
736 2 0.268041 0.238312 0.372402
213 1 0.361739 0.0862741 0.395987
162 1 0.382727 0.234846 0.413787
678 2 0.582493 0.141387 0.361477
187 1 0.511083 0.143885 0.402613
698 2 0.682914 0.0495016 0.385749
686 2 0.683954 0.21168 0.389528
692 2 0.530637 0.281575 0.387312
133 1 0.789056 0.168579 0.357927
159 1 0.842046 0.00941275 0.375042
179 1 0.934143 0.13609 0.351687
657 2 0.276385 0.394262 0.362969
656 2 0.0099017 0.352134 0.354199
220 1 0.127959 0.454149 0.374442
186 1 0.0229571 0.481009 0.412405
710 2 0.11665 0.297071 0.387723
669 2 0.479482 0.353061 0.424328
132 1 0.358518 0.367101 0.391409
688 2 0.216016 0.454831 0.40716
143 1 0.5755 0.432199 0.376996
643 2 0.732515 0.429755 0.391142
718 2 0.646773 0.345348 0.417797
217 1 0.744565 0.388886 0.355637
244 1 0.871012 0.409392 0.414338
664 2 0.815056 0.295357 0.383322
165 1 0.969159 0.277945 0.396331
693 2 0.910828 0.437924 0.375721
199 1 0.140698 0.618881 0.35042
205 1 0.125663 0.776922 0.405851
645 2 0.258408 0.558031 0.375802
171 1 0.408263 0.532809 0.35365
631 2 0.452591 0.515114 0.39293
221 1 0.297853 0.702947 0.380072
725 2 0.499762 0.790662 0.390984
198 1 0.652447 0.628972 0.369531
173 1 0.552331 0.646882 0.40467
676 2 0.718169 0.76797 0.362555
223 1 0.474861 0.688067 0.363075
723 2 0.724632 0.569343 0.402313
196 1 0.0216914 0.721988 0.373025
216 1 0.952538 0.59027 0.369227
644 2 0.782625 0.540574 0.368648
275 1 0.914796 0.578388 0.419958
737 2 0.809405 0.697092 0.387843
246 1 0.973626 0.770505 0.418782
225 1 0.141899 0.805421 0.359484
682 2 0.0835707 0.986493 0.351162
660 2 0.028681 0.874917 0.386435
236 1 0.136995 0.999381 0.412423
202 1 0.367683 0.810098 0.356221
232 1 0.386679 0.920263 0.391889
212 1 0.240771 0.900296 0.391031
174 1 0.651986 0.751004 0.406648
724 2 0.571912 0.843689 0.361886
719 2 0.709132 0.93125 0.356059
690 2 0.990909 0.0293727 0.385528
654 2 0.880183 0.95692 0.340077
200 1 0.857707 0.841217 0.391044
211 1 0.200252 0.157 0.410503
181 1 0.0511352 0.138565 0.41033
265 1 0.232731 0.217082 0.461412
735 2 0.161297 0.0607222 0.448951
235 1 0.315476 0.139528 0.437794
233 1 0.535167 0.0818492 0.442093
733 2 0.314708 0.0283027 0.470202
633 2 0.656503 0.0348495 0.424476
684 2 0.662818 0.0612461 0.467467
716 2 0.59302 0.207483 0.431075
705 2 0.762607 0.117497 0.437364
189 1 0.850421 0.153877 0.393147
715 2 0.944682 0.0816524 0.441275
184 1 0.0703432 0.333207 0.433922
192 1 0.0602374 0.424698 0.47188
296 1 0.143455 0.484423 0.436755
261 1 0.233952 0.309924 0.420835
242 1 0.334852 0.423115 0.430463
234 1 0.36838 0.318417 0.463323
239 1 0.521886 0.316265 0.459394
689 2 0.758441 0.34292 0.457673
721 2 0.619727 0.464986 0.450581
659 2 0.939222 0.258673 0.430075
240 1 0.765638 0.502256 0.434836
709 2 0.792883 0.268206 0.426923
215 1 0.846714 0.200039 0.46045
767 2 0.886008 0.4353 0.457059
203 1 0.120811 0.595341 0.397119
745 2 0.10509 0.692946 0.440144
222 1 0.00695924 0.554911 0.448949
741 2 0.259522 0.781794 0.428112
237 1 0.405517 0.652121 0.407849
722 2 0.484248 0.684919 0.44193
712 2 0.279912 0.589535 0.428328
779 2 0.443062 0.535411 0.429409
713 2 0.343074 0.71082 0.464163
193 1 0.584288 0.490101 0.412933
204 1 0.635428 0.633385 0.439353
663 2 0.81222 0.601688 0.464826
229 1 0.775693 0.68199 0.426005
206 1 0.925779 0.687558 0.453015
681 2 -0.00227879 0.920367 0.423668
755 2 0.045827 0.839695 0.456969
746 2 0.185212 0.893083 0.437287
251 1 0.046683 0.992749 0.461035
278 1 0.170846 0.790203 0.468148
214 1 0.432838 0.939874 0.445062
257 1 0.310377 0.966346 0.422144
707 2 0.406564 0.81661 0.420361
708 2 0.311271 0.872654 0.461442
208 1 0.511746 0.928707 0.408652
683 2 0.581744 0.914165 0.448115
228 1 0.701643 0.802378 0.445367
727 2 0.572079 0.777632 0.469255
717 2 0.763375 0.951571 0.448899
703 2 0.699224 0.888617 0.405559
209 1 0.860478 0.824863 0.43367
749 2 0.826325 0.0120459 0.409186
321 1 0.0802989 0.147136 0.470005
284 1 0.208756 0.0472141 0.499606
290 1 0.0192485 0.0134354 0.525181
753 2 0.411528 0.154053 0.472355
264 1 0.503851 0.985591 0.478738
731 2 0.347734 0.0473194 0.511832
742 2 0.299725 0.20326 0.507217
734 2 0.556975 0.193922 0.475585
778 2 0.539233 0.235886 0.518707
804 2 0.69693 0.184779 0.498296
250 1 0.800549 0.0654625 0.48652
210 1 0.95826 0.119073 0.492929
260 1 0.864357 0.22635 0.505358
308 1 0.874064 0.0587172 0.522636
763 2 0.157539 0.28301 0.487245
711 2 0.017927 0.284469 0.463995
272 1 0.159355 0.436224 0.509217
791 2 0.032486 0.275217 0.508703
714 2 0.438938 0.449045 0.466889
732 2 0.208917 0.371024 0.45238
747 2 0.304547 0.4009 0.501112
738 2 0.446602 0.282286 0.494368
269 1 0.497937 0.42305 0.505213
739 2 0.626144 0.382791 0.484696
685 2 0.740934 0.479451 0.480382
230 1 0.774361 0.319952 0.523485
765 2 0.931719 0.457434 0.521578
740 2 0.862144 0.381991 0.491256
695 2 0.154483 0.605942 0.469964
762 2 0.0634273 0.559062 0.510251
267 1 0.25287 0.556808 0.51763
766 2 0.22904 0.729878 0.505248
701 2 0.0640937 0.715038 0.493171
754 2 0.0992096 0.663374 0.532747
792 2 0.263011 0.514396 0.466857
218 1 0.46473 0.659234 0.479034
227 1 0.372799 0.707899 0.505604
249 1 0.383313 0.536193 0.493324
744 2 0.67203 0.504561 0.513165
694 2 0.598991 0.584521 0.476894
748 2 0.545653 0.603698 0.535955
300 1 0.58123 0.696236 0.503617
668 2 0.719964 0.703466 0.48167
262 1 0.953423 0.53692 0.486448
245 1 0.810333 0.575899 0.504166
314 1 0.918335 0.667921 0.517226
726 2 0.167689 0.944511 0.476785
793 2 0.116312 0.855078 0.514745
255 1 0.425529 0.835468 0.484424
752 2 0.292919 0.862986 0.498481
729 2 0.715428 0.00317375 0.518875
279 1 0.559907 0.893399 0.512733
772 2 0.663586 0.902376 0.482999
774 2 0.856871 0.763152 0.49082
224 1 0.867986 0.886169 0.470199
243 1 0.837962 0.898373 0.513679
799 2 0.0195102 0.941593 0.493126
770 2 0.982296 0.828192 0.525225
704 2 0.710512 0.806909 0.515095
256 1 0.0997913 0.949891 0.552967
757 2 0.150597 0.162427 0.523411
802 2 0.167305 0.0402658 0.587313
781 2 0.1091 0.151954 0.560459
287 1 0.248816 0.0851688 0.546627
310 1 0.320882 0.169142 0.584201
809 2 0.549687 0.124239 0.571038
289 1 0.419584 0.18102 0.549717
277 1 0.72948 0.134223 0.579653
824 2 0.623411 0.112964 0.534029
309 1 0.502581 0.0365358 0.516789
759 2 0.758854 0.167086 0.534317
294 1 0.863928 0.173705 0.566281
789 2 0.784926 0.0197436 0.552568
280 1 0.978202 0.161962 0.536588
281 1 0.99134 0.0381925 0.575918
788 2 0.161281 0.302344 0.584553
298 1 0.264192 0.420632 0.579024
286 1 0.0456472 0.296707 0.545986
295 1 0.2141 0.408938 0.544857
315 1 0.0410084 0.474227 0.551247
259 1 0.407495 0.314013 0.531286
728 2 0.26175 0.281701 0.558197
764 2 0.393436 0.303822 0.575466
285 1 0.52731 0.403474 0.561322
263 1 0.403652 0.501144 0.536263
219 1 0.639634 0.380097 0.534169
761 2 0.731606 0.320065 0.565733
270 1 0.588399 0.272283 0.567768
794 2 0.609075 0.368973 0.596887
845 2 0.725324 0.474722 0.590821
790 2 0.899838 0.390222 0.564456
299 1 0.172209 0.551512 0.558021
797 2 0.0626111 0.681401 0.579691
775 2 0.255573 0.689868 0.564091
293 1 0.430081 0.449104 0.58748
769 2 0.395328 0.59316 0.573402
366 1 0.66467 0.536931 0.549733
254 1 0.772991 0.671064 0.531336
288 1 0.561174 0.623463 0.57398
273 1 0.894123 0.569488 0.544951
274 1 0.793984 0.453522 0.545653
241 1 0.845769 0.566846 0.581279
297 1 0.913643 0.726828 0.582932
350 1 0.738231 0.682981 0.575256
780 2 0.229875 0.944714 0.530365
751 2 0.137075 0.79374 0.552298
798 2 0.302974 0.778953 0.537088
796 2 0.228044 0.888464 0.565989
266 1 0.415638 0.913495 0.526197
743 2 0.364867 0.831533 0.56691
258 1 0.429232 0.710813 0.539994
348 1 0.491987 1.00081 0.55434
823 2 0.690411 0.862699 0.54743
322 1 0.586813 0.759654 0.538075
282 1 0.642265 0.996113 0.570803
777 2 0.515684 0.821711 0.568075
306 1 0.821356 0.808053 0.554618
730 2 0.912787 0.930921 0.550904
785 2 0.974702 0.709677 0.54961
302 1 0.0620372 0.181148 0.608964
771 2 0.229028 0.139095 0.619652
760 2 0.360889 0.98141 0.575764
372 1 0.405474 0.137651 0.617005
374 1 0.622765 0.130368 0.614221
301 1 0.766756 0.129951 0.629358
311 1 0.761266 0.247367 0.60089
784 2 0.908023 0.127663 0.598329
776 2 0.00845955 0.270544 0.583484
305 1 0.808719 0.28827 0.653019
291 1 0.0605113 0.337171 0.623833
349 1 0.117994 0.437108 0.586275
292 1 0.239822 0.432437 0.617423
782 2 0.20631 0.274953 0.64737
248 1 0.427331 0.41035 0.622477
832 2 0.297043 0.289781 0.609446
268 1 0.498422 0.225579 0.594613
834 2 0.37265 0.331756 0.657646
342 1 0.524564 0.427238 0.655298
320 1 0.80124 0.393649 0.625801
335 1 0.635655 0.255626 0.632164
319 1 0.473807 0.273271 0.634299
817 2 0.918832 0.262219 0.624814
313 1 0.802093 0.536871 0.62627
331 1 0.939708 0.381987 0.600348
816 2 0.838105 0.460499 0.660947
811 2 0.980266 0.549344 0.600667
341 1 0.301111 0.570335 0.603874
814 2 0.159103 0.621626 0.611449
357 1 0.105359 0.484002 0.62763
328 1 0.392932 0.581213 0.630075
253 1 0.35659 0.717088 0.598204
226 1 0.555926 0.50462 0.602767
750 2 0.655148 0.625694 0.611622
768 2 0.516044 0.648826 0.622952
303 1 0.653627 0.460849 0.63586
325 1 0.645132 0.775308 0.641595
795 2 0.016323 0.698079 0.624053
825 2 0.839226 0.675883 0.614074
840 2 0.956117 0.555038 0.642688
850 2 0.0892694 0.0134895 0.616685
800 2 0.0366448 0.862965 0.581035
822 2 0.0631637 0.844845 0.623685
368 1 0.297405 0.785993 0.625593
252 1 0.214683 0.89978 0.603951
756 2 0.325911 0.0144305 0.63165
283 1 0.180653 0.74893 0.59417
326 1 0.495254 0.0167653 0.626937
842 2 0.39313 0.903322 0.609713
783 2 0.658133 0.806905 0.590337
758 2 0.591136 0.931117 0.602635
818 2 0.509633 0.781911 0.60662
324 1 0.645937 0.962223 0.642425
803 2 0.530037 0.0728836 0.662868
808 2 0.781968 0.982635 0.592355
843 2 0.768711 0.837179 0.620005
865 2 0.916895 0.933713 0.598451
849 2 0.828506 0.975836 0.633561
355 1 0.925874 0.82007 0.63924
347 1 0.147164 0.0710956 0.652625
332 1 0.0253669 0.141119 0.679313
829 2 0.174466 0.116718 0.687738
807 2 0.0583339 0.206578 0.64465
787 2 0.329269 0.112159 0.657334
833 2 0.378719 0.0917068 0.69323
333 1 0.463309 0.207973 0.671988
827 2 0.627121 0.0805897 0.699424
304 1 0.721779 0.0295573 0.6702
330 1 0.52195 0.209626 0.706456
376 1 0.665409 0.174515 0.666729
390 1 0.670652 0.225557 0.705015
810 2 0.92842 0.123499 0.642974
846 2 0.841111 0.144647 0.677851
377 1 0.926074 0.262246 0.670901
812 2 0.206716 0.448233 0.658464
861 2 0.0463373 0.44253 0.66512
416 1 0.156958 0.313196 0.682301
424 1 0.0947444 0.438028 0.701494
323 1 0.29418 0.230198 0.684088
338 1 0.468866 0.343285 0.686213
851 2 0.316967 0.428937 0.68573
365 1 0.670706 0.352124 0.670904
364 1 0.518688 0.481852 0.695058
339 1 0.629117 0.362198 0.702693
773 2 0.713247 0.497582 0.691235
871 2 0.781571 0.35599 0.693165
801 2 0.278439 0.66912 0.64755
387 1 0.267423 0.591789 0.68178
891 2 0.138479 0.590027 0.655242
317 1 0.437361 0.745006 0.641975
862 2 0.411357 0.521867 0.665371
900 2 0.40924 0.673296 0.678077
847 2 0.555483 0.663621 0.665984
340 1 0.601779 0.616476 0.700455
343 1 0.655345 0.762948 0.683189
813 2 0.730946 0.594976 0.659669
848 2 0.931694 0.535348 0.684861
838 2 0.778045 0.632174 0.701996
839 2 0.820929 0.721119 0.650595
860 2 0.986247 0.705317 0.661075
271 1 0.982905 0.985956 0.658424
867 2 0.314268 0.821652 0.671608
821 2 0.215777 0.914966 0.644484
815 2 0.168761 0.767028 0.655541
855 2 0.00123346 0.858999 0.687583
396 1 0.0990527 0.96863 0.691925
820 2 0.258868 0.991609 0.677009
276 1 0.551203 0.953507 0.686182
346 1 0.417115 0.96089 0.664789
874 2 0.40888 0.857274 0.703252
826 2 0.73912 0.880037 0.664825
358 1 0.694048 0.919108 0.707839
819 2 0.528007 0.822902 0.666404
423 1 0.821837 0.810009 0.690372
864 2 0.86953 0.9678 0.681799
805 2 0.210084 0.983114 0.72267
881 2 0.139804 0.0593642 0.760968
830 2 0.0719713 0.187744 0.744765
786 2 0.254032 0.123793 0.734194
854 2 0.313102 0.0848409 0.77321
353 1 0.404489 0.150653 0.726542
835 2 0.331694 0.301191 0.718814
329 1 0.614517 0.181335 0.737414
869 2 0.719227 0.0621154 0.730735
853 2 0.793177 0.197146 0.716141
352 1 0.902884 0.0867911 0.712528
863 2 0.955736 0.221079 0.707194
384 1 0.0459381 0.00494353 0.730639
879 2 0.862238 0.0573941 0.753889
857 2 0.24856 0.418665 0.723408
876 2 0.141592 0.225521 0.713892
828 2 0.17472 0.420471 0.753806
361 1 0.0103672 0.343393 0.733709
359 1 0.405762 0.441793 0.728132
307 1 0.392409 0.339159 0.757554
837 2 0.520191 0.339154 0.727847
844 2 0.613402 0.500055 0.727958
889 2 0.517227 0.457492 0.755725
414 1 0.662532 0.352367 0.764307
345 1 0.925956 0.396109 0.697812
859 2 0.740985 0.395204 0.735428
930 2 0.764548 0.191501 0.750012
385 1 0.868962 0.327566 0.747326
410 1 0.0372167 0.465184 0.754031
836 2 0.129419 0.674732 0.688584
386 1 0.00990122 0.545814 0.717834
362 1 0.197776 0.574195 0.724032
312 1 0.150578 0.605866 0.76962
408 1 0.309557 0.524235 0.754783
373 1 0.375632 0.599521 0.710131
367 1 0.250688 0.702285 0.752473
873 2 0.502146 0.721499 0.708363
360 1 0.49709 0.587566 0.732997
898 2 0.788197 0.628085 0.75735
375 1 0.629001 0.595557 0.759072
875 2 0.933686 0.676727 0.703976
370 1 0.854264 0.524174 0.72885
473 1 0.942275 0.625737 0.752185
841 2 0.187651 0.847642 0.700566
896 2 0.127722 0.70556 0.726098
877 2 0.1193 0.845915 0.738645
872 2 0.35689 0.00417135 0.731467
831 2 0.291147 0.727533 0.708559
318 1 0.399799 0.781097 0.739222
371 1 0.269293 0.877841 0.742025
886 2 0.444487 0.944524 0.765959
897 2 0.375584 0.778339 0.779958
316 1 0.536812 0.0488372 0.732705
334 1 0.626944 0.923749 0.753229
430 1 0.54258 0.750786 0.757089
327 1 0.544264 0.877664 0.726176
909 2 0.680202 0.753903 0.719125
404 1 0.765106 0.868175 0.739486
398 1 0.943904 0.778519 0.736836
356 1 0.910837 0.900184 0.760351
379 1 0.892084 0.923917 0.719052
413 1 0.220073 0.159958 0.794471
412 1 0.300376 0.17611 0.82315
921 2 0.0103071 0.0431175 0.829513
369 1 0.379952 0.238297 0.789449
941 2 0.444047 0.0661588 0.79352
924 2 0.485217 0.207713 0.755599
389 1 0.725271 0.0309514 0.767731
882 2 0.569413 0.0585758 0.768841
382 1 0.528519 -0.00143955 0.824033
920 2 0.586568 0.128276 0.810784
892 2 0.620421 0.214385 0.780148
880 2 0.962746 0.0226485 0.787214
922 2 0.797462 0.132728 0.801933
990 2 0.907749 0.202091 0.767667
806 2 0.0860553 0.303084 0.780085
393 1 0.225758 0.261076 0.757955
910 2 0.240579 0.291451 0.845104
932 2 0.0149774 0.176382 0.801479
363 1 0.234957 0.341977 0.790045
441 1 0.0849363 0.49741 0.801244
443 1 0.379127 0.426279 0.795253
984 2 0.368499 0.360546 0.832781
460 1 0.764888 0.311526 0.79002
884 2 0.521981 0.352431 0.794386
391 1 0.676421 0.477184 0.808045
449 1 0.730476 0.494203 0.774718
381 1 0.844873 0.468531 0.797592
351 1 0.935277 0.3527 0.780233
964 2 0.901284 0.263819 0.815046
944 2 0.950108 0.484648 0.830772
344 1 0.0357814 0.734518 0.773842
401 1 0.252695 0.680724 0.811212
912 2 0.0934635 0.64157 0.80377
400 1 0.402083 0.626699 0.765006
858 2 0.286244 0.559786 0.790552
917 2 0.403188 0.720272 0.812408
915 2 0.403824 0.578759 0.82109
887 2 0.540626 0.522053 0.79246
422 1 0.715567 0.633437 0.791573
337 1 0.544696 0.688447 0.792498
972 2 0.718516 0.775056 0.768178
893 2 0.886177 0.482826 0.76018
411 1 0.908169 0.617302 0.790631
856 2 0.845636 0.6568 0.824496
406 1 0.0225289 0.86809 0.7892
942 2 0.290866 0.837693 0.810241
392 1 0.162779 0.815504 0.775438
916 2 0.155654 0.966952 0.806681
911 2 0.139647 0.789964 0.813774
852 2 0.277109 0.927477 0.774756
383 1 0.440632 0.891529 0.800098
895 2 0.70262 0.021785 0.806497
397 1 0.629161 0.890587 0.791193
354 1 0.807842 0.899521 0.788523
899 2 0.875866 0.736761 0.768169
885 2 0.912659 0.773701 0.809337
421 1 0.751786 0.901501 0.824235
378 1 0.152415 0.182025 0.827427
388 1 0.241915 0.106919 0.867697
457 1 0.093073 0.103633 0.86057
476 1 0.289563 0.00694176 0.823493
380 1 0.385758 0.0506569 0.847841
440 1 0.396167 0.251331 0.861932
403 1 0.275296 0.945725 0.87649
928 2 0.43702 0.07433 0.882874
429 1 0.484107 0.270226 0.822778
949 2 0.5151 0.151117 0.853602
399 1 0.660324 0.063629 0.845293
425 1 0.852736 0.0526562 0.8313
499 1 0.873098 0.172707 0.853348
976 2 0.719321 0.205266 0.831347
955 2 0.0185911 0.20469 0.842376
953 2 0.727558 0.15604 0.871073
431 1 0.0836019 0.322466 0.821747
878 2 0.103611 0.317731 0.860149
445 1 0.386273 0.458755 0.86174
418 1 0.250926 0.374469 0.883419
462 1 0.57625 0.298253 0.857752
405 1 0.621626 0.320589 0.816198
975 2 0.689378 0.3102 0.881815
935 2 0.544283 0.458639 0.836605
394 1 0.687827 0.420173 0.856953
417 1 0.811613 0.316752 0.856162
435 1 0.953671 0.390564 0.859374
913 2 0.153743 0.649923 0.842928
940 2 0.103105 0.466283 0.855419
937 2 0.231674 0.520315 0.865086
22 1 0.07663 0.753857 0.858227
943 2 0.352585 0.616011 0.856079
866 2 0.495964 0.734166 0.841345
901 2 0.233438 0.475008 0.818156
939 2 0.501421 0.597515 0.86306
933 2 0.609331 0.610984 0.83492
870 2 0.6917 0.757964 0.819785
931 2 0.653078 0.553702 0.86965
497 1 0.983647 0.646763 0.834768
883 2 0.772777 0.51558 0.83001
890 2 0.814944 0.59696 0.861749
336 1 0.792973 0.74279 0.857247
452 1 0.237104 0.863469 0.845357
968 2 0.116764 0.949522 0.874456
428 1 0.0620268 0.899528 0.840872
434 1 0.405597 0.859297 0.836093
923 2 0.58704 0.736527 0.872234
919 2 0.565224 0.840029 0.822633
481 1 0.520545 0.963167 0.859569
868 2 0.658979 0.892428 0.856261
420 1 0.908484 0.920508 0.81572
451 1 0.816432 0.914537 0.861173
453 1 0.971373 0.992413 0.863799
469 1 0.934288 0.812731 0.845454
995 2 0.141847 0.093943 0.896933
996 2 0.00213157 0.265031 0.927526
446 1 0.23261 0.112348 0.927882
954 2 0.993727 0.233007 0.88641
934 2 0.337414 0.179216 0.900087
908 2 0.502684 0.210873 0.891721
493 1 0.436656 0.219069 0.929811
904 2 0.588829 0.0825509 0.887138
2 1 0.559792 0.123519 0.928293
427 1 0.464667 0.00944576 0.927703
484 1 0.734446 0.0919475 0.92644
888 2 0.842776 0.268682 0.889323
479 1 0.00932247 0.103238 0.915584
75 1 0.833927 0.0854024 0.893309
426 1 0.0808292 0.362466 0.899748
483 1 0.173665 0.243311 0.904289
25 1 0.155094 0.380442 0.932279
436 1 0.301025 0.380317 0.919243
974 2 0.426737 0.351013 0.891093
32 1 0.272132 0.262801 0.95055
960 2 0.537337 0.447763 0.877212
409 1 0.694853 0.260792 0.918198
965 2 0.542742 0.325837 0.915372
415 1 0.689455 0.478779 0.905344
966 2 0.799233 0.449279 0.880598
480 1 0.859385 0.211207 0.929866
983 2 0.940585 0.373866 0.898956
465 1 0.816697 0.370079 0.92654