ITEM: TIMESTEP
10660
ITEM: NUMBER OF ATOMS
1000
ITEM: BOX BOUNDS pp pp pp
0.0000000000000000e+00 6.2996052494743662e+00
0.0000000000000000e+00 6.2996052494743662e+00
0.0000000000000000e+00 2.5198420997897465e+01
ITEM: ATOMS id type xs ys zs
11 1 0.14483 0.113572 0.0694205
952 2 0.113218 0.141368 0.983341
46 1 0.0714822 0.00233183 0.0216713
486 1 0.0232411 0.143999 0.0440409
13 1 0.13617 0.17099 0.0216634
526 2 0.408841 0.218796 0.0535977
17 1 0.486548 0.139041 0.0030611
28 1 0.266854 0.149894 0.0557413
504 2 0.82336 0.149416 0.996072
529 2 0.54802 0.173693 0.0416158
12 1 0.674382 0.917015 0.0279715
573 2 0.659155 0.275739 0.030613
477 1 0.999836 0.227675 0.00175701
544 2 0.820219 0.0978601 0.031536
534 2 0.790489 0.978421 0.0580176
528 2 0.102454 0.278186 0.0609455
510 2 0.107289 0.314461 0.0137871
987 2 0.163314 0.44655 0.043311
489 1 0.251113 0.280544 0.0333345
63 1 0.361271 0.470513 0.0246977
7 1 0.351589 0.368335 0.0573736
506 2 0.635895 0.485395 0.0436412
485 1 0.767405 0.386712 0.0342913
58 1 0.551516 0.361938 0.999023
61 1 0.988337 0.416905 0.0174542
977 2 0.96256 0.298499 0.0380298
487 1 0.714015 0.30579 0.993576
961 2 0.870462 0.567388 0.0322007
71 1 0.847457 0.266364 0.0202174
963 2 0.0956488 0.520635 0.00920399
997 2 0.167303 0.704552 0.0214558
86 1 0.0144349 0.659333 0.0283463
65 1 0.248361 0.589859 0.0444754
524 2 0.347244 0.664685 0.0176392
927 2 0.247506 0.489547 0.996142
19 1 0.239494 0.653912 0.99035
18 1 0.286774 0.746515 0.0506983
514 2 0.467412 0.752244 0.0354489
989 2 0.68905 0.617811 0.0135807
998 2 0.569756 0.616195 0.0575365
999 2 0.643844 0.476784 0.00674364
962 2 0.950186 0.582233 0.988453
33 1 0.710739 0.689741 0.0467533
545 2 0.895522 0.725624 0.0486491
488 1 0.955072 0.764837 0.997567
967 2 0.0870976 0.951522 0.0655203
21 1 0.0220678 0.816447 0.0309373
918 2 0.213116 0.0135753 0.0414312
9 1 0.338131 0.894303 0.0375153
24 1 0.507672 0.853455 0.00079738
37 1 0.201907 0.8457 0.0147091
95 1 0.803132 0.840915 0.0258987
29 1 0.641655 0.971656 0.993623
548 2 0.593758 0.986278 0.0653651
507 2 0.7822 0.982422 0.00414513
571 2 0.535962 0.00917781 0.0287549
971 2 0.599983 0.802032 0.0474853
936 2 0.910227 0.907052 0.00903024
100 1 0.950922 0.00120433 0.049124
549 2 0.905093 0.865608 0.0640242
101 1 0.224949 0.164486 0.11023
985 2 0.0885671 0.266034 0.102974
555 2 0.282341 0.990042 0.115747
560 2 0.361306 0.121276 0.0853589
498 1 0.39759 0.0725958 0.0435734
600 2 0.513461 0.161961 0.0775842
521 2 0.609806 0.253275 0.0929166
27 1 0.680933 0.103374 0.0545191
48 1 0.451528 0.112201 0.118025
527 2 0.463949 0.267928 0.110146
1 1 0.993743 0.0932283 0.0786771
982 2 0.804674 0.234468 0.0557056
565 2 0.728576 0.171407 0.0887348
532 2 0.000704524 0.507554 0.048565
85 1 0.0267901 0.400967 0.074014
77 1 0.160026 0.394669 0.109598
52 1 0.263388 0.248126 0.0828772
552 2 0.517822 0.365923 0.0759969
551 2 0.376207 0.418873 0.0970709
125 1 0.342027 0.438092 0.14592
581 2 0.237726 0.415809 0.0764382
73 1 0.688194 0.359948 0.0629026
558 2 0.530628 0.404239 0.117071
519 2 0.490755 0.534737 0.0862113
598 2 0.879994 0.17951 0.123063
35 1 0.797293 0.303166 0.0942659
981 2 0.861917 0.401748 0.0708343
41 1 0.934964 0.237944 0.0749064
957 2 0.139533 0.545495 0.0723327
10 1 0.0539459 0.71445 0.0986424
547 2 0.313769 0.553844 0.107721
517 2 0.208481 0.694672 0.0986562
56 1 0.353293 0.525319 0.0678443
538 2 0.453086 0.567277 0.123906
523 2 0.421809 0.671883 0.0741743
38 1 0.349653 0.713969 0.114321
511 2 0.683634 0.550597 0.0819976
15 1 0.744158 0.706052 0.0946173
520 2 0.825644 0.603658 0.0656626
40 1 0.979719 0.629642 0.0720847
502 2 0.894831 0.756955 0.0917811
44 1 0.10939 0.0319125 0.106374
525 2 0.183245 0.869395 0.0534832
546 2 0.14302 0.864969 0.0938221
57 1 0.237284 0.983457 0.0809649
23 1 0.311697 0.829314 0.0822052
542 2 0.354893 0.874101 0.121551
543 2 0.43348 0.988324 0.0900875
516 2 0.731859 0.841872 0.0675971
559 2 0.457189 0.872211 0.0624613
96 1 0.708398 0.978799 0.0920006
577 2 0.624959 0.864101 0.0990414
575 2 0.863805 0.0142985 0.0904559
59 1 0.846944 0.0467492 0.125299
70 1 0.141477 0.696812 0.0605791
39 1 0.987626 0.889955 0.0956195
513 2 0.817358 0.832488 0.119118
80 1 0.085583 0.133014 0.133357
566 2 0.205219 0.0454839 0.146447
82 1 0.17852 0.194208 0.166677
576 2 0.992742 0.996846 0.1324
599 2 0.526714 0.124689 0.151239
74 1 0.390745 0.133367 0.169727
93 1 0.314584 0.165992 0.137925
503 2 0.6106 0.0905533 0.0999956
536 2 0.487897 0.000461252 0.178
99 1 0.65751 0.0682212 0.160401
79 1 0.617392 0.208469 0.129388
34 1 0.752843 0.172012 0.149306
554 2 0.908797 0.115254 0.157555
60 1 0.86983 0.950839 0.15753
150 1 0.847289 0.243929 0.172361
64 1 0.0528462 0.556671 0.104031
590 2 0.109439 0.28594 0.139805
582 2 0.12468 0.455373 0.147676
83 1 0.318664 0.296006 0.123175
87 1 0.321845 0.466033 0.184785
561 2 0.34096 0.276363 0.184362
564 2 0.230072 0.35466 0.16025
50 1 0.683447 0.424318 0.100177
78 1 0.457895 0.261641 0.150076
62 1 0.629272 0.350732 0.149734
531 2 0.657746 0.601893 0.119799
112 1 0.505062 0.294374 0.18972
76 1 0.647689 0.213184 0.179018
533 2 0.821804 0.486599 0.0956758
26 1 0.938896 0.288368 0.144916
604 2 0.788995 0.35153 0.12834
89 1 0.931404 0.373601 0.112731
550 2 0.193686 0.788971 0.129104
553 2 0.104683 0.666595 0.138496
98 1 0.0770571 0.800364 0.166035
556 2 0.495837 0.441657 0.152784
595 2 0.19089 0.564658 0.173298
91 1 0.276988 0.702665 0.152153
570 2 0.541247 0.660575 0.142293
509 2 0.781772 0.509828 0.13075
537 2 0.557113 0.739615 0.0846298
116 1 0.640342 0.526897 0.161276
88 1 0.648405 0.803275 0.132589
14 1 0.755945 0.613038 0.175407
587 2 0.990917 0.77344 0.130905
66 1 0.88634 0.624912 0.113997
90 1 0.769427 0.67986 0.140329
94 1 0.916197 0.490556 0.143174
42 1 0.128374 0.914591 0.13456
105 1 0.0531371 0.00329015 0.169265
53 1 0.409345 0.992528 0.145574
541 2 0.249076 0.864401 0.15581
578 2 0.355507 0.866091 0.1826
597 2 0.480316 0.794823 0.128995
92 1 0.571879 0.981313 0.125646
69 1 0.721334 0.887319 0.177337
539 2 0.725374 0.937284 0.139746
589 2 0.543928 0.872379 0.161152
540 2 0.878406 0.797999 0.164785
580 2 0.0341171 0.1935 0.178154
601 2 0.955935 0.276385 0.205697
603 2 0.23465 0.106424 0.252626
610 2 0.128702 0.0852458 0.200014
638 2 0.281321 0.1455 0.200894
134 1 0.540626 0.0476375 0.231855
110 1 0.637806 0.201275 0.220559
127 1 0.408384 0.0390752 0.208664
68 1 0.771268 0.045508 0.186067
109 1 0.796983 0.186423 0.204461
605 2 0.952141 0.0666444 0.197108
535 2 0.161067 0.433866 0.187633
107 1 0.132482 0.249798 0.204889
140 1 0.0453282 0.38485 0.223623
632 2 0.320002 0.649647 0.193789
157 1 0.524534 0.13154 0.195901
611 2 0.3936 0.347086 0.218419
617 2 0.369576 0.502612 0.225886
651 2 0.215165 0.375306 0.225731
608 2 0.568813 0.388342 0.229578
586 2 0.49255 0.222616 0.238525
557 2 0.582122 0.432806 0.186134
671 2 0.697227 0.34035 0.208195
54 1 0.0038414 0.377244 0.177727
585 2 0.885325 0.323829 0.241654
81 1 0.851622 0.387751 0.205754
84 1 0.766843 0.362926 0.169731
104 1 0.900742 0.483401 0.233665
111 1 0.0353524 0.529785 0.178105
622 2 0.119428 0.663939 0.202552
606 2 0.150063 0.527597 0.220374
618 2 0.979 0.600457 0.21836
591 2 0.246578 0.627016 0.234055
122 1 0.24632 0.788282 0.207517
141 1 0.426655 0.562903 0.162842
613 2 0.415051 0.734823 0.210004
607 2 0.719901 0.464813 0.250374
72 1 0.44849 0.478348 0.1962
67 1 0.552133 0.629112 0.190874
592 2 0.684984 0.633427 0.225643
635 2 0.748178 0.511734 0.206198
615 2 0.895383 0.553567 0.185627
139 1 0.617709 0.740208 0.168355
594 2 0.957216 0.649529 0.157722
108 1 0.944824 0.730963 0.195511
596 2 0.16147 0.918962 0.186943
117 1 0.0274434 0.95948 0.210761
567 2 0.147281 0.895921 0.241869
97 1 0.414706 0.730648 0.166142
583 2 0.28693 0.0058241 0.179039
118 1 0.275351 0.980758 0.221288
562 2 0.478083 0.891622 0.205787
572 2 0.612567 0.995844 0.1992
144 1 0.620542 0.782084 0.202406
530 2 0.884102 0.909367 0.194148
55 1 0.766438 0.909678 0.216506
113 1 0.732128 0.765853 0.239827
563 2 0.784474 0.735594 0.198087
648 2 0.895231 0.851545 0.235712
128 1 0.060849 0.205673 0.239437
602 2 0.20634 0.26025 0.25484
646 2 0.13879 0.1951 0.305937
163 1 0.26479 0.164286 0.286471
153 1 0.289039 0.929817 0.260807
201 1 0.353957 0.284979 0.283018
177 1 0.388377 0.0445735 0.291796
131 1 0.400093 0.0486072 0.244512
124 1 0.627339 0.159998 0.257433
137 1 0.426901 0.154801 0.269831
653 2 0.66786 0.0162416 0.282177
579 2 0.716804 0.056085 0.222333
569 2 0.917967 0.169352 0.232299
151 1 0.802031 0.0836272 0.258084
175 1 0.0562573 0.968246 0.302514
614 2 0.933105 0.947986 0.269959
145 1 0.0462883 0.285236 0.277659
636 2 0.247641 0.426532 0.257934
661 2 0.196853 0.348352 0.285836
626 2 0.339013 0.253104 0.243942
612 2 0.493732 0.344211 0.293562
650 2 0.372524 0.471199 0.302193
640 2 0.624157 0.266989 0.296699
138 1 0.642482 0.321212 0.259852
634 2 0.819908 0.391897 0.276526
172 1 0.974823 0.151251 0.270275
623 2 0.758028 0.25085 0.243503
119 1 0.918394 0.316359 0.297462
120 1 0.118978 0.687999 0.248863
166 1 0.123427 0.513835 0.263728
146 1 0.313991 0.556141 0.271315
624 2 0.199211 0.665447 0.277024
675 2 0.410661 0.401459 0.25737
142 1 0.403522 0.659232 0.244888
114 1 0.525966 0.49666 0.273618
616 2 0.289147 0.774634 0.242284
637 2 0.664369 0.488155 0.294647
665 2 0.841328 0.637469 0.236107
115 1 0.581943 0.638349 0.26003
670 2 0.568264 0.535157 0.221228
123 1 0.728326 0.632643 0.263208
630 2 0.627292 0.63948 0.294646
609 2 0.957596 0.716165 0.259132
135 1 0.982998 0.444028 0.270453
169 1 0.848791 0.542228 0.266815
620 2 0.952562 0.63036 0.289753
102 1 0.0987825 0.0602775 0.246932
152 1 0.94984 0.839111 0.302743
121 1 0.0366952 0.833722 0.268882
642 2 0.0640812 0.806871 0.213428
672 2 0.19626 0.827406 0.279209
696 2 0.292497 0.914996 0.30368
673 2 0.406748 0.805487 0.314848
568 2 0.174815 0.0255681 0.280924
103 1 0.353626 0.734568 0.277348
593 2 0.528393 0.730717 0.230041
647 2 0.607309 0.894466 0.233012
164 1 0.513301 0.751483 0.281976
149 1 0.437591 0.850351 0.244783
160 1 0.659137 0.804856 0.281942
588 2 0.762027 0.921119 0.254442
667 2 0.886393 0.998567 0.22963
621 2 0.815097 0.78616 0.271187
625 2 0.796371 0.919086 0.298797
176 1 0.221914 0.0612492 0.31364
706 2 0.275912 0.11553 0.35941
182 1 0.111836 0.205945 0.347691
700 2 0.0587104 0.011782 0.336527
197 1 0.322184 0.229725 0.320879
231 1 0.386395 0.0224014 0.339334
678 2 0.470339 0.1376 0.345435
658 2 0.528517 0.992061 0.321509
702 2 0.436228 0.0199604 0.374194
183 1 0.547341 0.123838 0.293751
627 2 0.63551 0.142955 0.344391
126 1 0.741991 0.19189 0.319926
180 1 0.825351 0.0816482 0.297527
655 2 0.761692 0.0180413 0.359758
185 1 0.873881 0.13057 0.340359
680 2 0.993521 0.150103 0.318661
657 2 0.274603 0.368981 0.319515
106 1 0.069218 0.33025 0.312912
584 2 0.08168 0.511344 0.302744
662 2 0.508141 0.314368 0.332936
148 1 0.536009 0.507437 0.317085
167 1 0.308042 0.486432 0.346095
686 2 0.623135 0.312204 0.364536
133 1 0.775205 0.320552 0.355173
158 1 0.649239 0.401621 0.333293
652 2 0.835201 0.214971 0.279827
161 1 0.764 0.346701 0.309418
699 2 0.878418 0.335792 0.331671
645 2 0.136645 0.472335 0.336679
641 2 0.106032 0.660169 0.307248
168 1 0.230929 0.551969 0.309208
619 2 0.422019 0.623201 0.300372
171 1 0.262576 0.643476 0.341599
143 1 0.447399 0.612471 0.343878
198 1 0.588083 0.723483 0.345303
639 2 0.683956 0.759996 0.317223
643 2 0.630261 0.573457 0.348821
170 1 0.77983 0.665345 0.348561
244 1 0.730086 0.489472 0.374557
129 1 0.722839 0.574722 0.321297
130 1 0.913562 0.492701 0.308545
191 1 0.0133903 0.597286 0.331945
629 2 0.80936 0.67471 0.296626
207 1 0.172741 0.925221 0.342222
247 1 0.0824693 0.806862 0.313488
649 2 0.919345 0.70139 0.326868
196 1 0.963905 0.878351 0.343939
720 2 0.103143 0.714177 0.348388
691 2 0.338023 0.874813 0.35292
697 2 0.251062 0.779156 0.322067
178 1 0.512432 0.884017 0.350473
147 1 0.520279 0.925572 0.273194
154 1 0.546322 0.855886 0.310631
628 2 0.705215 0.0453283 0.317522
155 1 0.876881 0.979075 0.32897
195 1 0.811856 0.823736 0.327552
212 1 0.215386 0.0107052 0.409802
677 2 0.141367 0.0571096 0.376287
736 2 0.247522 0.280577 0.357485
211 1 0.116536 0.228953 0.385589
690 2 0.058895 0.0125693 0.408261
187 1 0.39706 0.222499 0.376665
682 2 0.282743 0.985745 0.378501
188 1 0.313394 0.127458 0.400594
683 2 0.49467 0.0120903 0.42689
633 2 0.586237 0.156219 0.388076
165 1 0.759145 0.183595 0.3745
189 1 0.721078 0.205636 0.410358
679 2 0.981964 0.0948147 0.365448
184 1 0.886505 0.27611 0.392166
656 2 0.977343 0.261601 0.355692
179 1 0.876889 0.0550489 0.402221
687 2 0.103524 0.342588 0.355424
688 2 0.174128 0.465201 0.411106
136 1 0.390881 0.359537 0.353065
213 1 0.265182 0.306618 0.397329
162 1 0.380503 0.423417 0.400956
692 2 0.51238 0.332336 0.389115
664 2 0.706268 0.361272 0.399561
217 1 0.490733 0.469999 0.354903
669 2 0.491715 0.524773 0.391912
693 2 0.891992 0.438714 0.369753
710 2 0.0695311 0.310192 0.422778
156 1 0.99918 0.403449 0.398787
132 1 0.205091 0.432824 0.369937
203 1 0.243579 0.605201 0.415704
216 1 0.0471873 0.51121 0.372635
220 1 0.17536 0.602435 0.379527
631 2 0.354672 0.626845 0.37685
173 1 0.629462 0.600548 0.387278
723 2 0.646906 0.651187 0.42761
718 2 0.632904 0.494822 0.415337
644 2 0.911709 0.592175 0.356001
666 2 0.990913 0.441664 0.340073
199 1 0.970324 0.742845 0.362977
186 1 0.900524 0.538285 0.415901
194 1 0.801461 0.485446 0.339306
275 1 0.781227 0.629063 0.402685
205 1 0.973584 0.624063 0.389241
221 1 0.2489 0.774777 0.37882
745 2 0.179348 0.743097 0.432732
660 2 0.0449263 0.923563 0.377704
225 1 0.116988 0.751721 0.398829
223 1 0.43542 0.748166 0.359463
725 2 0.379299 0.769018 0.399215
202 1 0.472799 0.88268 0.389063
174 1 0.541413 0.753952 0.407377
746 2 0.243542 0.868977 0.420164
190 1 0.666239 0.890787 0.343481
676 2 0.689049 0.744405 0.379076
698 2 0.588531 0.0243748 0.368124
703 2 0.600444 0.965743 0.404188
654 2 0.903606 0.951612 0.37482
200 1 0.976334 0.815918 0.395729
674 2 0.832374 0.782025 0.373478
724 2 0.736296 0.890386 0.383175
209 1 0.92815 0.948438 0.424577
236 1 0.119424 0.0292279 0.445273
232 1 0.335268 0.189944 0.434657
261 1 0.229903 0.100365 0.454213
235 1 0.143377 0.170237 0.424056
707 2 0.352299 0.01508 0.440899
214 1 0.477837 0.00793194 0.469165
684 2 0.468294 0.153 0.45179
238 1 0.443928 0.1917 0.411572
233 1 0.352631 0.110824 0.476773
159 1 0.710149 0.0642217 0.395635
705 2 0.712045 0.162108 0.460366
717 2 0.593922 0.103766 0.433449
228 1 0.605586 0.970209 0.450141
715 2 0.857725 0.0853332 0.442522
659 2 0.858021 0.256381 0.441772
192 1 0.0318044 0.453214 0.438451
711 2 0.959218 0.265278 0.467844
272 1 0.106781 0.309347 0.461655
242 1 0.228428 0.402878 0.44622
239 1 0.40566 0.314523 0.438674
714 2 0.345202 0.385884 0.469169
716 2 0.581813 0.295964 0.426007
689 2 0.724056 0.347136 0.441322
739 2 0.618496 0.424031 0.458912
240 1 0.750791 0.521797 0.440262
734 2 0.595539 0.256987 0.462519
181 1 0.982606 0.178368 0.412955
709 2 0.830395 0.406543 0.411852
740 2 0.931755 0.432732 0.487166
230 1 0.774862 0.303214 0.477447
222 1 0.056412 0.581296 0.420516
296 1 0.170864 0.543246 0.447843
206 1 0.0691599 0.640112 0.457875
193 1 0.439822 0.636382 0.413424
237 1 0.324539 0.521921 0.446208
721 2 0.503969 0.512796 0.437355
663 2 0.690774 0.627528 0.466971
668 2 0.622918 0.774583 0.474457
204 1 0.502881 0.673144 0.447765
737 2 0.804103 0.684291 0.441228
215 1 0.879457 0.4211 0.448026
224 1 0.762148 0.823575 0.451604
767 2 0.92953 0.567042 0.45531
246 1 0.969455 0.706977 0.426277
695 2 0.242114 0.68534 0.473037
257 1 0.157226 0.874934 0.456494
681 2 0.0816602 0.867915 0.422316
208 1 0.394054 0.875887 0.425241
722 2 0.341953 0.718674 0.439631
708 2 0.344054 0.904184 0.463927
727 2 0.470666 0.818896 0.466309
229 1 0.614445 0.825751 0.436879
749 2 0.745934 0.949765 0.418898
719 2 0.778462 0.778021 0.411811
243 1 0.731835 0.862093 0.489771
755 2 0.995204 0.814399 0.448319
251 1 0.887399 0.928626 0.461835
732 2 0.115416 0.187061 0.48883
753 2 0.250256 0.13106 0.508097
264 1 0.396632 0.112425 0.522379
729 2 0.521334 0.118642 0.494602
778 2 0.640476 0.275758 0.497371
250 1 0.746362 0.0210264 0.456302
284 1 0.913464 0.0862105 0.526413
210 1 0.850424 0.156635 0.474446
759 2 0.787574 0.19815 0.513788
265 1 0.0330697 0.153079 0.454216
260 1 0.945132 0.257556 0.510306
321 1 0.980652 0.100506 0.487898
262 1 0.043362 0.506089 0.473809
765 2 0.0611891 0.351006 0.504377
747 2 0.183795 0.523468 0.529742
742 2 0.199773 0.299654 0.515257
712 2 0.200657 0.433909 0.494886
234 1 0.266853 0.250164 0.480743
738 2 0.424523 0.277837 0.486335
792 2 0.337513 0.425869 0.512902
685 2 0.754377 0.485917 0.478848
269 1 0.482934 0.551151 0.518399
779 2 0.485751 0.408076 0.486721
744 2 0.710137 0.512802 0.517802
762 2 0.99006 0.491361 0.521427
761 2 0.807375 0.386117 0.519651
273 1 0.000127559 0.649609 0.498761
267 1 0.140775 0.58573 0.493502
766 2 0.289588 0.604402 0.512638
741 2 0.341456 0.791642 0.490426
713 2 0.384888 0.527916 0.484436
752 2 0.177026 0.726225 0.50997
218 1 0.505856 0.647461 0.488993
694 2 0.602847 0.533502 0.490317
249 1 0.456726 0.668998 0.539086
748 2 0.605467 0.724026 0.511438
300 1 0.757043 0.710234 0.494686
245 1 0.873332 0.57227 0.494201
774 2 0.895335 0.697996 0.473224
735 2 0.158649 0.036657 0.48395
780 2 0.073012 0.976494 0.515287
278 1 0.0964889 0.756736 0.476209
266 1 0.189225 0.862966 0.497299
751 2 0.189802 0.878729 0.538573
733 2 0.41091 0.933552 0.496736
227 1 0.329695 0.770589 0.531035
255 1 0.503761 0.981611 0.525219
772 2 0.569547 0.905215 0.491552
279 1 0.471118 0.783514 0.507593
726 2 0.052116 0.942617 0.475501
701 2 0.941055 0.831386 0.484272
704 2 0.755522 0.796798 0.53122
799 2 0.880683 0.953299 0.505013
287 1 0.219957 0.0782258 0.543764
256 1 0.0325637 0.0422022 0.546631
788 2 0.11553 0.224322 0.561131
796 2 0.341688 0.0158345 0.563507
731 2 0.290393 0.981534 0.520293
310 1 0.440575 0.166219 0.560812
259 1 0.437246 0.278062 0.529326
760 2 0.386983 0.119884 0.594402
757 2 0.279848 0.230116 0.543339
289 1 0.56523 0.175014 0.528423
277 1 0.578182 0.157607 0.591438
804 2 0.655429 0.0875019 0.501931
290 1 0.765743 0.0992172 0.5438
776 2 0.862195 0.211913 0.585819
791 2 0.9292 0.214811 0.551565
280 1 0.873547 0.0497687 0.568899
763 2 0.0737099 0.180576 0.527016
298 1 0.232662 0.508667 0.571251
286 1 0.000597945 0.279403 0.581862
295 1 0.0879947 0.345639 0.540956
728 2 0.241173 0.400421 0.544875
349 1 0.188818 0.36863 0.584894
832 2 0.354194 0.385399 0.585384
764 2 0.526411 0.282219 0.567846
263 1 0.404092 0.467626 0.551859
270 1 0.670561 0.279708 0.536091
294 1 0.710388 0.195187 0.572609
219 1 0.598242 0.402487 0.510813
285 1 0.627801 0.435593 0.546842
790 2 0.811482 0.301917 0.555852
366 1 0.769515 0.494895 0.563083
274 1 0.940243 0.374993 0.556368
320 1 0.786321 0.378368 0.587046
293 1 0.250152 0.706631 0.555606
775 2 0.0893434 0.646649 0.533831
797 2 0.1266 0.649728 0.582038
299 1 0.058283 0.51872 0.557537
248 1 0.376932 0.604236 0.567581
253 1 0.342522 0.742993 0.619274
322 1 0.581552 0.771512 0.550793
769 2 0.562799 0.543905 0.562586
254 1 0.664665 0.631047 0.5431
226 1 0.668655 0.615234 0.587597
241 1 0.903319 0.527214 0.548873
770 2 0.900891 0.766237 0.516263
750 2 0.843789 0.601497 0.585823
314 1 0.802025 0.644307 0.526068
283 1 0.206676 0.772227 0.60336
800 2 0.152371 0.964445 0.568007
793 2 0.0241603 0.843534 0.521002
743 2 0.428067 0.747025 0.574321
258 1 0.285049 0.869814 0.564222
348 1 0.439917 0.908583 0.585693
823 2 0.627145 0.875766 0.52596
309 1 0.459673 0.854039 0.544692
282 1 0.593444 0.907008 0.567946
308 1 0.742853 0.972195 0.520639
783 2 0.755716 0.736866 0.565378
730 2 0.931243 0.910703 0.544789
306 1 0.749737 0.934433 0.561056
785 2 0.995671 0.967044 0.585024
754 2 0.979351 0.735741 0.549547
291 1 0.152993 0.240141 0.609758
781 2 0.000617615 0.121058 0.584574
802 2 0.211561 0.0964702 0.579028
810 2 0.0298062 0.216291 0.635658
771 2 0.28197 0.241462 0.584631
758 2 0.44953 0.959511 0.623566
756 2 0.292746 0.189706 0.62431
252 1 0.274234 0.0462478 0.612792
789 2 0.68407 0.0342755 0.585287
809 2 0.504225 0.020054 0.572726
335 1 0.587714 0.0846247 0.625203
824 2 0.628683 0.0493087 0.545535
826 2 0.69394 0.986482 0.635916
281 1 0.845919 0.933713 0.603142
305 1 0.891167 0.119519 0.623747
331 1 0.907509 0.308808 0.615504
817 2 0.0487756 0.382271 0.608202
801 2 0.0631786 0.480291 0.651156
347 1 0.176498 0.102116 0.647021
268 1 0.435141 0.258039 0.608703
787 2 0.262351 0.348995 0.618212
782 2 0.355504 0.508944 0.65467
319 1 0.49872 0.389298 0.594017
333 1 0.415339 0.299877 0.648709
794 2 0.625624 0.301932 0.604143
773 2 0.696268 0.446861 0.630925
834 2 0.402216 0.45426 0.621668
311 1 0.764237 0.272035 0.617004
784 2 0.737328 0.134389 0.628753
840 2 0.829544 0.417724 0.649333
811 2 0.946828 0.44976 0.630772
297 1 0.983123 0.64065 0.590206
795 2 0.991877 0.589539 0.631711
315 1 0.923491 0.472847 0.596545
341 1 0.0904407 0.52585 0.601959
768 2 0.461015 0.547108 0.599842
292 1 0.230791 0.490793 0.612896
342 1 0.267508 0.633809 0.600831
777 2 0.514122 0.789817 0.615523
328 1 0.157971 0.661536 0.627284
303 1 0.590178 0.604594 0.62204
818 2 0.463312 0.670137 0.634804
324 1 0.632801 0.79542 0.639333
313 1 0.636573 0.461638 0.587948
813 2 0.789682 0.612977 0.651572
845 2 0.81583 0.551638 0.617856
325 1 0.738134 0.714877 0.613871
825 2 0.884701 0.69446 0.624946
822 2 0.107286 0.915722 0.60651
798 2 0.0858112 0.824607 0.575886
821 2 0.160417 0.931086 0.643454
326 1 0.407668 0.824004 0.645326
842 2 0.29216 0.890332 0.604197
288 1 0.577686 0.731319 0.587087
808 2 0.70972 0.834561 0.592949
374 1 0.596917 0.932654 0.607618
843 2 0.776555 0.835658 0.631855
814 2 0.0149007 0.780297 0.618245
271 1 0.984318 0.000248379 0.625944
350 1 0.909071 0.816528 0.581683
850 2 0.848196 0.996199 0.650762
302 1 0.111021 0.0724528 0.60798
332 1 0.123504 0.192911 0.67644
357 1 0.994548 0.351221 0.661289
276 1 0.420763 0.954256 0.662623
372 1 0.497466 0.149365 0.649713
330 1 0.54804 0.293317 0.682505
803 2 0.562996 0.0172212 0.655336
365 1 0.567665 0.282801 0.644346
301 1 0.660669 0.148744 0.661342
835 2 0.626181 0.278621 0.716191
334 1 0.584843 0.126362 0.702027
846 2 0.974322 0.205134 0.67457
304 1 0.823638 0.143612 0.668656
390 1 0.73051 0.169228 0.700662
829 2 0.217674 0.283405 0.69832
812 2 0.286955 0.425154 0.683053
416 1 0.150046 0.38393 0.721732
323 1 0.398006 0.315283 0.689781
833 2 0.285828 0.241402 0.666637
807 2 0.15297 0.34037 0.644605
339 1 0.628524 0.420359 0.692483
340 1 0.744648 0.51012 0.678349
816 2 0.852537 0.264293 0.65023
376 1 0.736063 0.288072 0.674
871 2 0.876381 0.388451 0.688631
362 1 0.158802 0.54341 0.691453
815 2 0.0886938 0.791063 0.656812
387 1 0.175984 0.691655 0.677228
862 2 0.197067 0.548157 0.651818
368 1 0.239195 0.797202 0.640289
317 1 0.320855 0.663195 0.657285
318 1 0.456855 0.610172 0.727688
867 2 0.286065 0.617352 0.698847
844 2 0.61317 0.576404 0.701776
338 1 0.503602 0.428134 0.652567
837 2 0.421313 0.492838 0.686705
343 1 0.591429 0.709489 0.672525
839 2 0.748246 0.736686 0.668472
860 2 0.907555 0.727892 0.660193
848 2 0.911789 0.532041 0.663248
861 2 0.0367211 0.439336 0.690862
849 2 0.0248106 0.0804822 0.657518
872 2 0.338795 0.907169 0.692813
346 1 0.300982 0.762363 0.68927
820 2 0.273585 0.0299519 0.679744
841 2 0.189964 0.881412 0.68366
847 2 0.437988 0.642401 0.680076
327 1 0.508406 0.947376 0.701714
819 2 0.553928 0.875863 0.666148
316 1 0.712422 0.884373 0.669958
873 2 0.66471 0.872091 0.707699
329 1 0.654426 0.0215354 0.689024
355 1 0.874919 0.88219 0.673493
865 2 0.923865 0.869591 0.635154
855 2 0.0310881 0.932389 0.670239
377 1 0.0536458 0.297918 0.696105
786 2 0.259503 0.150372 0.703809
830 2 0.177464 0.0652268 0.758329
857 2 0.218172 0.224559 0.737518
827 2 0.412694 0.0674351 0.689178
854 2 0.314557 0.121842 0.749951
353 1 0.485774 0.0929576 0.734433
397 1 0.489226 0.952337 0.766139
359 1 0.40772 0.21614 0.723001
909 2 0.602007 0.00552645 0.737049
853 2 0.822243 0.216668 0.739357
358 1 0.865375 0.0443436 0.692987
864 2 0.999705 0.0773518 0.701074
876 2 0.117923 0.147986 0.717001
356 1 0.887199 0.0839499 0.732531
806 2 0.0517001 0.285241 0.746601
805 2 0.0270395 0.123346 0.758053
828 2 0.182559 0.362424 0.756614
307 1 0.483306 0.27623 0.75837
851 2 0.30413 0.341672 0.731247
364 1 0.348371 0.490881 0.719634
360 1 0.500948 0.458447 0.722398
889 2 0.605689 0.403648 0.75402
352 1 0.963053 0.220531 0.723513
863 2 0.930571 0.391677 0.724371
859 2 0.777999 0.34831 0.716481
361 1 0.0074241 0.429001 0.763038
386 1 0.822921 0.464893 0.742622
385 1 0.92096 0.285139 0.765777
424 1 0.0763999 0.50639 0.724507
858 2 0.230224 0.606522 0.774993
398 1 0.999105 0.749721 0.737101
831 2 0.157254 0.666131 0.728009
312 1 0.209455 0.495404 0.741484
400 1 0.485853 0.597109 0.777807
337 1 0.567094 0.728532 0.758094
373 1 0.324158 0.644742 0.741953
838 2 0.757786 0.65643 0.700156
375 1 0.745178 0.633418 0.754559
370 1 0.720633 0.521712 0.72089
893 2 0.600342 0.59669 0.741365
410 1 0.69846 0.502121 0.767019
891 2 0.0336306 0.650341 0.684595
345 1 0.882296 0.558278 0.702899
473 1 0.897989 0.624259 0.739522
875 2 0.894572 0.722169 0.708185
881 2 0.228576 0.0192401 0.722025
371 1 0.231738 0.840983 0.720598
896 2 0.078059 0.967003 0.745144
874 2 0.458504 0.762886 0.699115
367 1 0.214787 0.753959 0.769079
886 2 0.385279 0.94157 0.734275
898 2 0.602495 0.72781 0.71647
900 2 0.547964 0.840151 0.735885
354 1 0.760877 0.013741 0.719595
404 1 0.733363 0.737377 0.733589
423 1 0.817962 0.855141 0.715885
836 2 0.0594373 0.795903 0.698184
379 1 0.962496 0.92342 0.710017
396 1 0.129563 0.0238695 0.690507
880 2 0.036788 0.129914 0.828444
412 1 0.31596 0.196715 0.80652
910 2 0.147946 0.226623 0.774754
852 2 0.310404 0.0117091 0.779269
882 2 0.419727 0.131539 0.776411
393 1 0.33816 0.267246 0.766551
378 1 0.301024 0.00302955 0.819253
382 1 0.514416 0.0149829 0.8024
389 1 0.584621 0.0925173 0.77029
924 2 0.562988 0.231734 0.796876
414 1 0.659039 0.262781 0.762674
877 2 0.00807599 0.0328782 0.78824
869 2 0.712417 0.112049 0.750285
405 1 0.614063 0.169995 0.828273
879 2 0.872593 0.138473 0.782376
384 1 0.0203609 0.201863 0.795282
922 2 0.841186 0.0590546 0.812799
369 1 0.393639 0.353375 0.808192
351 1 0.0292137 0.367144 0.796448
932 2 0.16966 0.248922 0.816059
443 1 0.246053 0.412253 0.795294
363 1 0.13465 0.532999 0.79353
892 2 0.573786 0.372303 0.822846
884 2 0.627255 0.403651 0.790257
887 2 0.500607 0.409632 0.776126
408 1 0.356584 0.449265 0.763201
930 2 0.768848 0.346077 0.766269
964 2 0.720054 0.30483 0.819383
391 1 0.743619 0.514548 0.807121
381 1 0.857886 0.399604 0.792555
460 1 0.747214 0.178787 0.798053
885 2 0.89396 0.539023 0.770512
940 2 0.0949486 0.618697 0.8253
406 1 0.98586 0.868944 0.764164
942 2 0.173312 0.726985 0.809061
913 2 0.258166 0.603835 0.812173
917 2 0.364474 0.723383 0.792333
866 2 0.509296 0.701539 0.816597
943 2 0.311121 0.741638 0.825469
933 2 0.417429 0.544771 0.808872
449 1 0.598974 0.540005 0.800438
870 2 0.657208 0.749422 0.799467
394 1 0.661677 0.623382 0.830279
422 1 0.799493 0.666797 0.790646
344 1 0.876453 0.742036 0.759165
411 1 0.987273 0.489712 0.818067
441 1 0.0847762 0.634653 0.761303
497 1 0.961749 0.638909 0.800751
413 1 0.167451 0.0755504 0.802497
392 1 0.155032 0.902613 0.787107
856 2 0.9218 0.800168 0.794572
401 1 0.0635558 0.769018 0.781954
430 1 0.397359 0.77968 0.730492
897 2 0.237108 0.918916 0.754248
383 1 0.301033 0.869396 0.796812
919 2 0.581252 0.879565 0.787163
336 1 0.807499 0.737109 0.827547
868 2 0.66834 0.796174 0.837915
895 2 0.713659 0.945667 0.760726
920 2 0.689624 0.0460626 0.796545
425 1 0.847258 0.969454 0.7833
972 2 0.754582 0.819905 0.780002
899 2 0.860108 0.926678 0.744456
431 1 0.141103 0.245943 0.852458
426 1 0.0787933 0.386215 0.878725
921 2 0.179568 0.0900313 0.851569
388 1 0.342191 0.146803 0.845699
434 1 0.340127 0.868735 0.853205
941 2 0.469874 0.186012 0.821678
949 2 0.453695 0.201586 0.868698
380 1 0.436167 0.00135602 0.833969
481 1 0.575708 0.0721148 0.858926
975 2 0.725905 0.0097332 0.853011
904 2 0.641026 0.904376 0.869683
990 2 0.861039 0.249457 0.814789
499 1 0.0379564 0.0881498 0.863593
937 2 0.160596 0.4895 0.860778
901 2 0.0894308 0.403548 0.833062
984 2 0.288128 0.300783 0.841323
429 1 0.268417 0.479325 0.830909
445 1 0.427489 0.434963 0.837801
883 2 0.619141 0.297368 0.857349
888 2 0.711607 0.194778 0.8689
935 2 0.605905 0.486917 0.844817
960 2 0.748863 0.447066 0.859386
974 2 0.630021 0.467415 0.879356
435 1 0.913195 0.474773 0.863159
407 1 0.0244701 0.582213 0.865893
417 1 0.895699 0.282578 0.859267
944 2 0.850903 0.396491 0.830025
902 2 0.946971 0.656997 0.841161
912 2 0.144723 0.708704 0.850638
894 2 0.351865 0.609745 0.843782
939 2 0.437864 0.732922 0.852111
458 1 0.466725 0.527499 0.868954
915 2 0.579523 0.612855 0.862629
931 2 0.742885 0.691791 0.861655
914 2 0.57612 0.75634 0.882548
890 2 0.793055 0.569906 0.840441
415 1 0.712385 0.589089 0.891944
395 1 0.878586 0.63987 0.873568
911 2 0.0401686 0.774264 0.826863
916 2 0.975963 0.966443 0.823343
452 1 0.182879 0.845293 0.859678
476 1 0.171385 0.920201 0.825942
968 2 0.191302 0.978999 0.881351
428 1 0.0655073 0.927944 0.851684
923 2 0.456646 0.839319 0.808795
925 2 0.297018 0.724295 0.874925
399 1 0.606654 0.966743 0.828282
403 1 0.515262 0.864875 0.849948
472 1 0.733295 0.721224 0.900449
420 1 0.901598 0.858574 0.838348
421 1 0.746641 0.871282 0.814859
459 1 0.780923 0.859127 0.861828
451 1 0.876908 0.977355 0.868669
908 2 0.25166 0.346423 0.91276
457 1 0.0628391 0.055266 0.902817
983 2 0.977062 0.254603 0.892131
878 2 0.274464 0.233998 0.876161
483 1 0.242202 0.110934 0.895088
934 2 0.388166 0.00552354 0.878186
928 2 0.382902 0.1264 0.900352
953 2 0.718867 0.0578119 0.895339
409 1 0.548165 0.129558 0.896876
479 1 0.947344 0.152231 0.922161
976 2 0.830524 0.150351 0.847183
954 2 0.884269 0.130302 0.884486
418 1 0.304933 0.432975 0.881733
470 1 0.277257 0.491303 0.917327
436 1 0.132006 0.53454 0.896797
906 2 0.0427412 0.490095 0.936644
25 1 0.0926608 0.359118 0.917369
440 1 0.45609 0.370052 0.87304
988 2 0.395555 0.275152 0.902175
439 1 0.399487 0.643936 0.9228
2 1 0.456082 0.220985 0.931183
462 1 0.582664 0.266902 0.899524
480 1 0.779072 0.223341 0.902967