ITEM: TIMESTEP
620
ITEM: NUMBER OF ATOMS
1000
ITEM: BOX BOUNDS pp pp pp
0.0000000000000000e+00 6.2996052494743662e+00
0.0000000000000000e+00 6.2996052494743662e+00
0.0000000000000000e+00 2.5198420997897465e+01
ITEM: ATOMS id type xs ys zs
1 1 0.0547447 0.0213901 0.00465701
2 1 0.211979 0.986564 0.0219095
6 1 0.903899 0.167404 0.996958
7 1 0.258123 0.24403 0.018088
26 1 0.0223621 0.986359 0.0876461
27 1 0.204621 0.960832 0.0982551
31 1 0.949774 0.278644 0.0920037
32 1 0.225656 0.142269 0.058197
501 2 0.11915 0.120095 0.031234
3 1 0.446117 0.0421926 0.00294775
8 1 0.469347 0.172677 0.0324809
28 1 0.459632 0.042727 0.0598362
33 1 0.393088 0.28827 0.0554226
502 2 0.320801 0.0929588 0.0159605
4 1 0.596308 0.0190141 0.00496179
9 1 0.599291 0.180081 0.0055808
29 1 0.644066 0.0579797 0.064328
34 1 0.691775 0.211762 0.0809952
503 2 0.607783 0.175024 0.0433468
504 2 0.752396 0.0539713 0.014307
5 1 0.911864 0.0466258 0.0150374
10 1 0.773157 0.237453 0.998455
30 1 0.804452 0.0311115 0.0672842
35 1 0.847496 0.179581 0.0738123
505 2 0.999802 0.108776 0.0556142
11 1 0.0195084 0.380911 0.0377712
12 1 0.250707 0.406884 0.0107301
36 1 0.973148 0.459717 0.0705145
37 1 0.142544 0.438785 0.0739822
506 2 0.186862 0.29929 0.0530883
13 1 0.393816 0.378836 0.0270882
38 1 0.351745 0.435431 0.0826025
507 2 0.264265 0.444391 0.0463982
14 1 0.547468 0.339584 0.0163731
39 1 0.649082 0.413874 0.0847826
508 2 0.572191 0.329457 0.0550723
509 2 0.7298 0.242775 0.0367801
15 1 0.875563 0.488323 0.00270851
40 1 0.815772 0.34696 0.0634514
510 2 0.87565 0.311441 0.024979
16 1 0.0337633 0.555566 0.00634054
17 1 0.168375 0.608515 0.00792837
41 1 0.0603117 0.619172 0.0752807
42 1 0.22183 0.620125 0.0705601
511 2 0.13638 0.497984 0.0403657
516 2 0.0839534 0.671491 0.0394011
18 1 0.488091 0.714594 0.986089
43 1 0.423841 0.622292 0.0846795
512 2 0.38961 0.555329 0.0505669
517 2 0.355963 0.649064 0.0185863
19 1 0.595995 0.470345 0.00876988
44 1 0.590935 0.630169 0.0844963
513 2 0.518626 0.47889 0.0574621
514 2 0.722691 0.40312 0.0318569
518 2 0.519821 0.632946 0.0331778
519 2 0.649649 0.577389 0.0514225
20 1 0.776676 0.654481 0.0103592
45 1 0.782549 0.654411 0.0497587
515 2 0.847238 0.52319 0.0442146
520 2 0.920472 0.741957 0.0265887
21 1 0.0443051 0.878526 0.0303241
22 1 0.225852 0.817958 0.0101392
46 1 0.101984 0.849764 0.0790454
47 1 0.264496 0.829737 0.066529
521 2 0.127667 0.994574 0.0584057
23 1 0.394825 0.824027 0.0208076
48 1 0.377828 0.763411 0.0497632
522 2 0.302161 0.977036 0.0569292
24 1 0.62086 0.648456 0.99195
49 1 0.651907 0.7574 0.0436835
523 2 0.494396 0.887275 0.0436529
524 2 0.668857 0.9331 0.0336052
25 1 0.797852 0.857881 0.00537072
50 1 0.783981 0.841826 0.0527375
525 2 0.924168 0.954401 0.0532855
51 1 0.0134677 0.0694266 0.134414
52 1 0.188891 0.0641822 0.127782
56 1 0.0300101 0.223056 0.134975
57 1 0.222649 0.223064 0.125764
526 2 0.0868829 0.16309 0.0858306
53 1 0.512792 0.0548042 0.121358
58 1 0.401278 0.188722 0.116403
527 2 0.351338 0.0573073 0.0939131
54 1 0.619921 0.944485 0.122985
59 1 0.683547 0.171252 0.123794
528 2 0.54729 0.146553 0.0889348
529 2 0.709736 0.0608795 0.0983288
55 1 0.829644 0.956175 0.111811
60 1 0.77312 0.0685258 0.147519
530 2 0.872906 0.0909411 0.105591
61 1 0.993276 0.377406 0.138031
62 1 0.140277 0.376396 0.143644
531 2 0.15207 0.348236 0.104881
63 1 0.325952 0.37237 0.124606
532 2 0.30036 0.231677 0.0889014
64 1 0.656521 0.443749 0.12471
533 2 0.549483 0.303094 0.106882
534 2 0.786443 0.319743 0.106731
65 1 0.833137 0.414256 0.140625
535 2 0.86969 0.224135 0.132971
66 1 0.0602289 0.576367 0.138573
67 1 0.226596 0.520197 0.154946
536 2 0.171508 0.506494 0.112183
541 2 0.0924082 0.725531 0.105734
68 1 0.479847 0.651284 0.135358
537 2 0.316193 0.535101 0.109793
542 2 0.306587 0.700087 0.0985591
69 1 0.635509 0.649722 0.123032
538 2 0.473487 0.489329 0.107098
539 2 0.778366 0.52757 0.0884442
543 2 0.45974 0.814499 0.078339
544 2 0.794729 0.711262 0.0861696
70 1 0.919552 0.6018 0.104032
540 2 0.900276 0.452723 0.109183
545 2 0.956819 0.742148 0.0794077
71 1 0.102884 0.770537 0.143372
72 1 0.251928 0.826603 0.12161
546 2 0.0222602 0.902295 0.119823
73 1 0.438999 0.810067 0.120112
547 2 0.351557 0.908631 0.0917061
74 1 0.624832 0.793464 0.132324
548 2 0.542835 0.950538 0.0887206
549 2 0.720319 0.874977 0.0928157
75 1 0.843366 0.801121 0.125577
550 2 0.895751 0.888357 0.0846623
76 1 0.977992 0.0610056 0.192698
77 1 0.245089 0.988922 0.166432
81 1 0.0726547 0.180051 0.196953
82 1 0.230709 0.182916 0.189075
551 2 0.123069 0.0949572 0.165736
78 1 0.421929 0.0142907 0.175502
83 1 0.434284 0.189632 0.185412
552 2 0.335523 0.131064 0.159797
79 1 0.576645 0.00318675 0.171735
84 1 0.580965 0.240601 0.187426
553 2 0.499317 0.150274 0.152683
554 2 0.671209 0.129761 0.168259
80 1 0.811174 0.0251828 0.181578
85 1 0.791974 0.168239 0.198215
555 2 0.945621 0.186625 0.171968
86 1 0.977874 0.351682 0.184647
87 1 0.197508 0.425133 0.18925
556 2 0.14451 0.28013 0.172915
88 1 0.358084 0.390748 0.195541
557 2 0.319896 0.289562 0.160198
89 1 0.634369 0.386113 0.179484
558 2 0.503933 0.364697 0.145326
559 2 0.683652 0.272636 0.154872
90 1 0.822647 0.443472 0.181754
560 2 0.824455 0.289691 0.173301
91 1 0.991788 0.655693 0.180553
92 1 0.2938 0.562654 0.193823
561 2 0.0507483 0.487833 0.172252
566 2 0.199628 0.669116 0.161625
93 1 0.452854 0.631057 0.179505
562 2 0.389655 0.513735 0.152733
567 2 0.30244 0.686024 0.138243
94 1 0.698052 0.561719 0.166111
563 2 0.555949 0.509961 0.154855
564 2 0.77553 0.600777 0.130459
568 2 0.603678 0.721194 0.168857
569 2 0.752965 0.731505 0.175077
95 1 0.817526 0.602857 0.198122
565 2 0.900277 0.560873 0.162077
570 2 0.951189 0.697529 0.14147
96 1 0.0909492 0.830087 0.179713
97 1 0.255538 0.838791 0.173753
571 2 0.100969 0.948012 0.15154
98 1 0.396664 0.757925 0.166197
572 2 0.353517 0.952235 0.136521
99 1 0.639678 0.838109 0.191398
573 2 0.487505 0.900652 0.156127
574 2 0.73363 0.912368 0.157638
100 1 0.928541 0.78859 0.175683
575 2 0.923121 0.932287 0.153888
101 1 0.0501006 0.00529385 0.224188
102 1 0.281631 0.980324 0.242532
106 1 0.033049 0.160248 0.242707
107 1 0.223199 0.19023 0.240965
576 2 0.186391 0.0499086 0.205662
601 2 0.155926 0.0731436 0.255091
103 1 0.434493 0.0155864 0.242597
108 1 0.40046 0.19905 0.234828
577 2 0.344253 0.0821912 0.211462
602 2 0.345081 0.0830319 0.267845
104 1 0.615356 0.990593 0.24583
109 1 0.646007 0.212944 0.230222
578 2 0.515063 0.0898851 0.211321
579 2 0.663738 0.075724 0.205617
603 2 0.519901 0.112011 0.270309
604 2 0.75376 0.138276 0.255815
105 1 0.803615 0.9966 0.253408
110 1 0.805501 0.261622 0.240969
580 2 0.853912 0.0740773 0.224106
605 2 0.906202 0.112656 0.26837
111 1 0.00444858 0.376486 0.246562
112 1 0.265569 0.432271 0.224114
581 2 0.110038 0.288947 0.225257
606 2 0.133631 0.302563 0.266968
113 1 0.419486 0.425541 0.236003
582 2 0.294301 0.278804 0.213879
607 2 0.284985 0.34016 0.258114
114 1 0.607225 0.390409 0.232963
583 2 0.475337 0.299783 0.217022
584 2 0.743767 0.336438 0.212369
608 2 0.492237 0.289713 0.265725
609 2 0.698262 0.30334 0.262219
115 1 0.838845 0.428053 0.236587
585 2 0.945223 0.283567 0.218354
610 2 0.933418 0.262385 0.269426
116 1 0.114281 0.585086 0.199891
117 1 0.250488 0.592633 0.233571
586 2 0.11949 0.440418 0.218659
591 2 0.124359 0.72454 0.214242
611 2 0.161173 0.454116 0.261411
616 2 0.100514 0.74379 0.255987
118 1 0.361201 0.694838 0.252204
587 2 0.432428 0.572549 0.226686
592 2 0.321467 0.736856 0.208783
612 2 0.315071 0.478231 0.263099
617 2 0.212244 0.659649 0.271831
119 1 0.605321 0.583927 0.242453
588 2 0.502667 0.471041 0.202382
589 2 0.708482 0.504364 0.209212
593 2 0.486984 0.773155 0.212149
594 2 0.636153 0.70317 0.205429
613 2 0.475527 0.510022 0.270727
614 2 0.732646 0.452606 0.26495
618 2 0.519298 0.687107 0.261318
619 2 0.70808 0.713976 0.262477
120 1 0.741347 0.623481 0.232284
590 2 0.95249 0.494262 0.204831
595 2 0.982669 0.654872 0.219192
615 2 0.927575 0.547738 0.250231
620 2 0.902232 0.715428 0.256301
121 1 0.00735704 0.816955 0.223684
122 1 0.250968 0.787601 0.245838
596 2 0.188003 0.869688 0.210542
621 2 0.10378 0.909846 0.266583
123 1 0.429301 0.831713 0.24335
597 2 0.3385 0.902273 0.202963
622 2 0.331154 0.890506 0.267114
124 1 0.615291 0.805867 0.241682
598 2 0.527824 0.937629 0.205405
599 2 0.720372 0.896421 0.218597
623 2 0.509797 0.930471 0.267749
624 2 0.711538 0.897817 0.266871
125 1 0.791117 0.753513 0.225841
600 2 0.909845 0.908838 0.204489
625 2 0.930043 0.882224 0.255893
126 1 0.0265875 0.0309052 0.281711
127 1 0.246324 0.00673352 0.288017
131 1 0.0534513 0.184517 0.283916
132 1 0.223901 0.182738 0.288066
626 2 0.136047 0.0827448 0.314535
128 1 0.409757 0.0035109 0.295652
133 1 0.387355 0.220679 0.283044
627 2 0.294762 0.0963061 0.316257
129 1 0.625879 0.99499 0.289894
134 1 0.635952 0.196549 0.28813
628 2 0.545033 0.0967722 0.311913
629 2 0.713166 0.0896755 0.311479
130 1 0.808013 0.998801 0.29115
135 1 0.806556 0.200387 0.290413
630 2 0.918739 0.10893 0.31188
136 1 0.0198863 0.385081 0.285061
137 1 0.218554 0.392704 0.293853
631 2 0.116216 0.291721 0.305449
138 1 0.379641 0.397574 0.286821
632 2 0.307225 0.282528 0.311563
139 1 0.604234 0.3946 0.279905
633 2 0.494154 0.308366 0.306241
634 2 0.714608 0.318303 0.307429
140 1 0.840658 0.371247 0.284198
635 2 0.920642 0.280594 0.306944
141 1 0.0755551 0.541358 0.281546
142 1 0.220909 0.550335 0.297618
636 2 0.0881849 0.533685 0.324116
641 2 0.107525 0.67831 0.303444
143 1 0.391123 0.617461 0.290923
637 2 0.316049 0.466889 0.319841
642 2 0.280613 0.658964 0.318736
144 1 0.654925 0.577177 0.285285
638 2 0.530214 0.524396 0.306089
639 2 0.763999 0.483686 0.301473
643 2 0.544993 0.69556 0.304762
644 2 0.72934 0.684851 0.303479
145 1 0.824789 0.601829 0.278826
640 2 0.920017 0.513277 0.30277
645 2 0.963339 0.656098 0.311507
146 1 0.993404 0.791124 0.290527
147 1 0.202447 0.817018 0.285236
646 2 0.0962014 0.900328 0.309174
148 1 0.407041 0.778885 0.280451
647 2 0.335683 0.881018 0.315747
149 1 0.62443 0.795021 0.284686
648 2 0.54795 0.903237 0.306939
649 2 0.706613 0.904892 0.308473
150 1 0.824609 0.796626 0.286711
650 2 0.934302 0.924929 0.314673
151 1 0.990227 0.0217653 0.337405
152 1 0.229696 0.963917 0.33374
156 1 0.039523 0.172719 0.339348
157 1 0.197969 0.200756 0.340415
651 2 0.133475 0.0705429 0.360077
153 1 0.41171 0.0283045 0.340401
158 1 0.38974 0.191038 0.335836
652 2 0.291599 0.0846612 0.361794
154 1 0.636375 0.984273 0.340048
159 1 0.627566 0.230989 0.326874
653 2 0.538324 0.136909 0.349114
654 2 0.700366 0.139342 0.356734
155 1 0.814036 0.00959459 0.333911
160 1 0.794842 0.235556 0.339893
655 2 0.893906 0.130684 0.361224
161 1 0.983607 0.394914 0.328434
162 1 0.178099 0.420173 0.334
656 2 0.108189 0.312896 0.365719
163 1 0.459014 0.421289 0.33101
657 2 0.28597 0.317047 0.347564
164 1 0.614107 0.410897 0.319048
658 2 0.482956 0.300451 0.357384
659 2 0.667263 0.328584 0.351748
165 1 0.805895 0.393835 0.333967
660 2 0.929538 0.306787 0.358619
166 1 0.0122388 0.599217 0.347829
167 1 0.16752 0.65206 0.346207
661 2 0.100632 0.511274 0.365118
666 2 0.0758504 0.748448 0.367999
168 1 0.427454 0.580451 0.329095
662 2 0.277501 0.556466 0.348975
667 2 0.317988 0.705971 0.354484
169 1 0.626195 0.618249 0.331572
663 2 0.517279 0.572136 0.362437
664 2 0.712361 0.494133 0.352777
668 2 0.531485 0.715664 0.351201
669 2 0.696176 0.679052 0.361535
170 1 0.799674 0.609729 0.331783
665 2 0.938963 0.464045 0.363444
670 2 0.90704 0.681328 0.360423
171 1 0.02725 0.805883 0.331102
172 1 0.211565 0.807954 0.334833
671 2 0.0784623 0.916584 0.356674
173 1 0.452609 0.78046 0.327418
672 2 0.339598 0.909256 0.359403
174 1 0.657387 0.804416 0.337489
673 2 0.506347 0.891581 0.352197
674 2 0.738868 0.902065 0.357285
175 1 0.819651 0.820809 0.330665
675 2 0.893942 0.929106 0.363028
176 1 0.0155335 0.0186192 0.381119
177 1 0.202357 0.971837 0.382425
181 1 0.0191676 0.193081 0.380231
182 1 0.253022 0.220075 0.381362
201 1 0.0388344 0.0165456 0.424663
202 1 0.211026 0.975851 0.424021
206 1 0.0135115 0.172084 0.426199
207 1 0.218973 0.210177 0.422557
676 2 0.129829 0.115922 0.404637
178 1 0.480036 0.037482 0.379297
183 1 0.402266 0.177139 0.377001
203 1 0.400857 0.978259 0.427858
208 1 0.402081 0.230343 0.425327
677 2 0.327574 0.0783455 0.402189
179 1 0.624691 0.0272078 0.375777
184 1 0.604762 0.230324 0.375702
204 1 0.614105 0.0145436 0.417112
209 1 0.576965 0.253628 0.423518
678 2 0.503649 0.136429 0.406141
679 2 0.684812 0.154325 0.409189
180 1 0.786321 0.0786574 0.383604
185 1 0.806341 0.229273 0.377341
205 1 0.786328 0.0314147 0.430758
210 1 0.821633 0.191457 0.420963
680 2 0.91035 0.108593 0.398178
186 1 0.0502664 0.414051 0.396792
187 1 0.215973 0.417852 0.371583
211 1 0.0253894 0.468789 0.433995
212 1 0.179099 0.408801 0.427475
681 2 0.125563 0.295839 0.403056
188 1 0.400073 0.472609 0.363178
213 1 0.384533 0.40111 0.427887
682 2 0.334365 0.34474 0.393579
189 1 0.565157 0.408671 0.374336
214 1 0.62588 0.425002 0.418309
683 2 0.487576 0.314751 0.396778
684 2 0.711184 0.308234 0.398497
190 1 0.811838 0.381581 0.381116
215 1 0.800206 0.388151 0.42842
685 2 0.919283 0.270652 0.402166
191 1 0.98644 0.572765 0.388885
192 1 0.207768 0.651106 0.38263
216 1 0.00245484 0.621495 0.425997
217 1 0.210577 0.642446 0.427861
686 2 0.124003 0.530436 0.408452
691 2 0.101925 0.702033 0.40697
193 1 0.409488 0.624856 0.379369
218 1 0.399884 0.635186 0.432091
687 2 0.290533 0.505305 0.407832
692 2 0.317118 0.720732 0.403578
194 1 0.6217 0.529344 0.38819
219 1 0.664998 0.609471 0.434983
688 2 0.497709 0.479843 0.408902
689 2 0.752711 0.496881 0.403705
693 2 0.531485 0.652036 0.40532
694 2 0.690595 0.71149 0.399417
195 1 0.821909 0.608022 0.38411
220 1 0.848037 0.605003 0.422606
690 2 0.910602 0.466084 0.407269
695 2 0.918828 0.717593 0.398254
196 1 0.978659 0.85826 0.388945
197 1 0.214509 0.807043 0.378733
221 1 0.00366492 0.802209 0.42506
222 1 0.23195 0.833589 0.428435
696 2 0.102675 0.891188 0.409668
198 1 0.434809 0.784077 0.376514
223 1 0.418373 0.80146 0.429483
697 2 0.324515 0.899556 0.400969
199 1 0.605878 0.853434 0.376959
224 1 0.636157 0.837231 0.422938
698 2 0.484617 0.912703 0.400898
699 2 0.729018 0.936421 0.397107
200 1 0.804216 0.79238 0.377509
225 1 0.799423 0.819554 0.415617
700 2 0.890029 0.947439 0.408875
226 1 0.0210162 0.00618542 0.471805
227 1 0.234879 0.996377 0.464801
231 1 0.00119474 0.200284 0.467583
232 1 0.20881 0.210143 0.469127
701 2 0.135634 0.0953466 0.445676
228 1 0.395309 0.0318305 0.466617
233 1 0.414472 0.194324 0.470863
702 2 0.332849 0.114763 0.442304
229 1 0.60962 0.98875 0.47017
234 1 0.606494 0.214303 0.46962
703 2 0.50733 0.0728794 0.44295
704 2 0.648976 0.10655 0.445563
230 1 0.785021 0.0259739 0.469398
235 1 0.822743 0.21325 0.455843
705 2 0.908837 0.0843431 0.450449
236 1 0.0388186 0.422591 0.469441
237 1 0.177669 0.401945 0.468733
706 2 0.107485 0.293264 0.446827
238 1 0.395687 0.411589 0.470464
707 2 0.271381 0.322326 0.449903
239 1 0.63139 0.404401 0.471082
708 2 0.49882 0.323898 0.451357
709 2 0.71827 0.293618 0.443087
240 1 0.827987 0.352562 0.464947
710 2 0.945992 0.316966 0.440206
241 1 0.0115579 0.651021 0.470407
242 1 0.216884 0.637376 0.466158
711 2 0.134503 0.548939 0.445446
716 2 0.11484 0.737184 0.449021
243 1 0.41023 0.627856 0.468408
712 2 0.285906 0.508233 0.448631
717 2 0.323515 0.74017 0.455967
244 1 0.667572 0.601529 0.474902
713 2 0.524671 0.514579 0.4481
714 2 0.729343 0.498589 0.449291
718 2 0.553904 0.725083 0.442913
719 2 0.718895 0.739596 0.452985
245 1 0.827028 0.611238 0.462984
715 2 0.892936 0.485729 0.450178
720 2 0.877039 0.743088 0.441503
246 1 0.989445 0.812006 0.469692
247 1 0.215376 0.834024 0.473129
721 2 0.105401 0.890982 0.44869
248 1 0.4585 0.809503 0.473139
722 2 0.337094 0.886765 0.454728
249 1 0.629444 0.828035 0.470632
723 2 0.514658 0.902329 0.445847
724 2 0.730446 0.910998 0.446322
250 1 0.807154 0.831921 0.47011
725 2 0.910167 0.93716 0.454409
251 1 0.979045 0.0206759 0.513095
252 1 0.215351 0.0168279 0.504934
256 1 0.994949 0.205763 0.50926
257 1 0.202962 0.217592 0.503835
726 2 0.110617 0.106683 0.484776
253 1 0.397051 0.0329934 0.512411
258 1 0.402898 0.232986 0.510988
727 2 0.297911 0.115329 0.487162
254 1 0.637751 0.074848 0.506154
259 1 0.580168 0.217787 0.506529
728 2 0.522555 0.0932798 0.489457
729 2 0.732167 0.146888 0.489706
255 1 0.805938 0.0153439 0.511527
260 1 0.836478 0.216445 0.506062
730 2 0.903628 0.0916865 0.487842
261 1 0.0259294 0.429691 0.508247
262 1 0.196448 0.439329 0.510838
731 2 0.0993814 0.312451 0.489912
263 1 0.405367 0.417768 0.506708
732 2 0.306943 0.319715 0.492403
264 1 0.622551 0.406156 0.505938
733 2 0.507065 0.337319 0.491725
734 2 0.724848 0.305454 0.490202
265 1 0.822648 0.414476 0.510327
735 2 0.926756 0.312423 0.488905
266 1 0.997079 0.619582 0.508205
267 1 0.211961 0.631753 0.506735
736 2 0.111116 0.541544 0.494065
741 2 0.105402 0.740993 0.489669
268 1 0.394748 0.636806 0.507293
737 2 0.281537 0.515858 0.486854
742 2 0.321365 0.760845 0.495049
269 1 0.619615 0.621625 0.512353
738 2 0.511025 0.527993 0.492536
739 2 0.759753 0.472532 0.480755
743 2 0.550276 0.691101 0.481769
744 2 0.730014 0.733095 0.488713
270 1 0.811106 0.584017 0.507624
740 2 0.917867 0.524478 0.489581
745 2 0.898787 0.735582 0.492335
271 1 0.0299962 0.817669 0.509811
272 1 0.204718 0.828454 0.509614
746 2 0.11872 0.91573 0.490833
273 1 0.402506 0.84901 0.51755
747 2 0.328629 0.925414 0.492674
274 1 0.625006 0.795493 0.506561
748 2 0.498304 0.937029 0.486338
749 2 0.713997 0.91924 0.489869
275 1 0.798367 0.811955 0.513429
750 2 0.9181 0.912641 0.49091
276 1 0.996706 0.0260475 0.553534
277 1 0.190874 0.0635994 0.554862
281 1 0.0221151 0.225851 0.545611
282 1 0.24008 0.225157 0.554895
751 2 0.122969 0.11124 0.526265
776 2 0.117632 0.178806 0.574254
278 1 0.440473 0.00926539 0.547522
283 1 0.386383 0.216782 0.551995
752 2 0.301146 0.144818 0.52925
777 2 0.31919 0.0852933 0.572829
279 1 0.593592 0.0393912 0.549135
284 1 0.611944 0.217891 0.552406
753 2 0.50198 0.14084 0.53133
754 2 0.71749 0.180551 0.525561
778 2 0.511536 0.143346 0.571749
779 2 0.753204 0.117137 0.571983
280 1 0.783896 0.00847696 0.546397
285 1 0.796953 0.241662 0.553071
755 2 0.87918 0.11675 0.532748
780 2 0.915031 0.142466 0.568828
286 1 0.00598036 0.393898 0.551211
287 1 0.217306 0.461844 0.552781
756 2 0.134001 0.304051 0.52677
781 2 0.126544 0.330182 0.567038
288 1 0.410162 0.426402 0.546138
757 2 0.296997 0.363298 0.5299
782 2 0.311613 0.357725 0.5713
289 1 0.599021 0.417726 0.549675
758 2 0.509112 0.315697 0.530844
759 2 0.717516 0.329337 0.52952
783 2 0.482275 0.321323 0.573076
784 2 0.698269 0.326921 0.570095
290 1 0.818622 0.413219 0.553485
760 2 0.908492 0.305112 0.533504
785 2 0.904776 0.330837 0.576552
291 1 0.988679 0.610757 0.5534
292 1 0.239521 0.62981 0.55374
761 2 0.0978741 0.533117 0.533747
766 2 0.103209 0.710765 0.530408
786 2 0.0806984 0.517014 0.572337
791 2 0.108839 0.697918 0.5681
293 1 0.394062 0.623007 0.552809
762 2 0.314569 0.532297 0.524542
767 2 0.299653 0.729438 0.53033
787 2 0.313178 0.532 0.57642
792 2 0.330129 0.71632 0.581339
294 1 0.610357 0.596057 0.546561
763 2 0.4763 0.543989 0.524251
764 2 0.708613 0.490994 0.525293
768 2 0.517112 0.707753 0.525372
769 2 0.725666 0.68854 0.530856
788 2 0.481698 0.514151 0.570428
789 2 0.706274 0.504355 0.572427
793 2 0.535397 0.699323 0.57042
794 2 0.722131 0.669546 0.575752
295 1 0.812398 0.580077 0.550937
765 2 0.921653 0.518439 0.52718
770 2 0.90367 0.706099 0.528424
790 2 0.926658 0.502066 0.573169
795 2 0.890195 0.723083 0.571189
296 1 0.988293 0.809269 0.55191
297 1 0.221453 0.815974 0.552176
771 2 0.109163 0.924969 0.53263
796 2 0.101381 0.947336 0.575278
298 1 0.425151 0.777596 0.553007
772 2 0.270937 0.928732 0.535337
797 2 0.334447 0.895844 0.5727
299 1 0.626871 0.782258 0.546711
773 2 0.563496 0.914504 0.522621
774 2 0.704961 0.913503 0.52439
798 2 0.512951 0.901473 0.567964
799 2 0.675603 0.938941 0.569651
300 1 0.784506 0.795393 0.550496
775 2 0.909645 0.896914 0.526491
800 2 0.854429 0.914319 0.580906
301 1 0.984658 0.996676 0.593349
302 1 0.226938 0.98167 0.590521
306 1 0.987577 0.208607 0.599214
307 1 0.246876 0.188713 0.596784
801 2 0.133047 0.106914 0.607914
303 1 0.417489 0.0125143 0.591486
308 1 0.401855 0.205041 0.593192
802 2 0.330598 0.0914895 0.621877
304 1 0.612624 0.047665 0.586591
309 1 0.616391 0.199858 0.594521
803 2 0.504061 0.150493 0.616359
804 2 0.71642 0.102365 0.610647
305 1 0.865558 0.0784368 0.604683
310 1 0.787183 0.265981 0.593648
805 2 0.881729 0.17272 0.635126
311 1 0.0403393 0.384033 0.596908
312 1 0.195609 0.429453 0.593282
806 2 0.149024 0.287233 0.615515
313 1 0.407807 0.429692 0.5973
807 2 0.292831 0.330676 0.615978
314 1 0.591968 0.390406 0.588193
808 2 0.487681 0.304801 0.620878
809 2 0.662074 0.309294 0.615204
315 1 0.808652 0.421007 0.592913
810 2 0.90503 0.334646 0.620817
316 1 0.998674 0.607189 0.592996
317 1 0.193188 0.606144 0.59192
811 2 0.0923351 0.516348 0.612158
816 2 0.10204 0.707016 0.615157
318 1 0.423767 0.604861 0.597886
812 2 0.315128 0.54736 0.619873
817 2 0.294303 0.744705 0.614855
319 1 0.59779 0.578019 0.594434
813 2 0.527362 0.46514 0.616866
814 2 0.708834 0.503536 0.615379
818 2 0.518289 0.70572 0.608947
819 2 0.700052 0.65976 0.614069
320 1 0.805762 0.583432 0.596674
815 2 0.931364 0.478994 0.615358
820 2 0.931868 0.730853 0.609915
321 1 0.0153566 0.820695 0.58788
322 1 0.195993 0.827043 0.591063
821 2 0.0745931 0.919669 0.613692
323 1 0.45878 0.815654 0.594418
822 2 0.330985 0.90594 0.613335
324 1 0.612981 0.818924 0.585395
823 2 0.546912 0.916822 0.613247
824 2 0.730387 0.930913 0.614957
325 1 0.771526 0.793533 0.590431
825 2 0.875113 0.906068 0.618152
326 1 0.991932 0.0461401 0.632314
327 1 0.18662 0.00683005 0.632492
331 1 0.0282872 0.196286 0.633913
332 1 0.219737 0.185687 0.640417
826 2 0.10535 0.108462 0.657922
328 1 0.440992 0.996032 0.635796
333 1 0.410332 0.209166 0.645936
827 2 0.320634 0.105023 0.659044
329 1 0.597964 0.0447694 0.633365
334 1 0.578994 0.221621 0.65017
828 2 0.507231 0.0807024 0.667675
829 2 0.6522 0.0902461 0.669941
330 1 0.800132 0.0437892 0.641563
335 1 0.721975 0.18567 0.645749
830 2 0.97427 0.0704233 0.675377
336 1 0.9797 0.412299 0.650355
337 1 0.17975 0.427322 0.635494
831 2 0.132298 0.292633 0.654049
338 1 0.402384 0.451209 0.641111
832 2 0.321296 0.329189 0.661646
339 1 0.6212 0.42316 0.646088
833 2 0.487864 0.342872 0.657996
834 2 0.687201 0.315853 0.665007
340 1 0.775115 0.385342 0.636987
835 2 0.864179 0.287973 0.659494
341 1 0.00949946 0.639095 0.642388
342 1 0.211373 0.628813 0.632175
836 2 0.103885 0.529907 0.664064
841 2 0.101517 0.736539 0.658537
343 1 0.418498 0.635908 0.638702
837 2 0.268612 0.539485 0.658049
842 2 0.303529 0.715705 0.655422
344 1 0.587543 0.572595 0.64299
838 2 0.503925 0.489238 0.667371
839 2 0.694497 0.54069 0.668038
843 2 0.537171 0.710551 0.646783
844 2 0.699992 0.679762 0.663229
345 1 0.833429 0.632983 0.633521
840 2 0.92504 0.544499 0.663858
845 2 0.883806 0.687147 0.666491
346 1 0.995364 0.821062 0.634951
347 1 0.194148 0.836103 0.635907
846 2 0.0764345 0.941387 0.6544
348 1 0.410714 0.821285 0.632446
847 2 0.320752 0.915837 0.650852
349 1 0.649583 0.811388 0.622163
848 2 0.538186 0.886099 0.650477
849 2 0.68858 0.93786 0.6543
350 1 0.78595 0.778772 0.640691
850 2 0.901575 0.923476 0.653584
351 1 0.0365494 0.938711 0.695519
352 1 0.204072 0.0299198 0.675789
356 1 0.00350671 0.219859 0.670552
357 1 0.236997 0.206821 0.67796
851 2 0.0965409 0.134144 0.697539
353 1 0.411406 0.972595 0.680974
358 1 0.400954 0.217141 0.68469
852 2 0.299452 0.11894 0.706293
354 1 0.581001 0.958791 0.688076
359 1 0.564146 0.231906 0.687395
853 2 0.448225 0.0709158 0.706578
854 2 0.654291 0.122025 0.706556
355 1 0.770838 0.00121237 0.689556
360 1 0.827052 0.147405 0.675344
855 2 0.910368 0.106501 0.715499
361 1 0.0363914 0.408756 0.682327
362 1 0.201781 0.423193 0.680782
856 2 0.113293 0.295419 0.701856
363 1 0.365637 0.469468 0.684547
857 2 0.295601 0.305349 0.708783
364 1 0.611417 0.412999 0.690442
858 2 0.45356 0.345599 0.70372
859 2 0.710552 0.27884 0.699065
365 1 0.786777 0.416596 0.684059
860 2 0.932525 0.310577 0.700778
366 1 0.0236616 0.63763 0.683122
367 1 0.189047 0.640748 0.676654
861 2 0.0912993 0.506694 0.709998
866 2 0.121007 0.756971 0.697574
368 1 0.389225 0.635026 0.680548
862 2 0.247389 0.543879 0.705793
867 2 0.273584 0.743167 0.697654
369 1 0.574236 0.602267 0.683464
863 2 0.497055 0.513286 0.715973
864 2 0.673939 0.518892 0.711076
868 2 0.493256 0.730403 0.7105
869 2 0.687016 0.708115 0.70543
370 1 0.81345 0.597164 0.69019
865 2 0.926375 0.50478 0.706857
870 2 0.863182 0.738342 0.709022
371 1 0.976623 0.795579 0.684043
372 1 0.198528 0.866552 0.671573
871 2 0.139319 0.896249 0.725227
373 1 0.409436 0.8066 0.675417
872 2 0.277903 0.910218 0.711336
374 1 0.587003 0.799626 0.680084
873 2 0.470007 0.895417 0.709138
874 2 0.672641 0.898434 0.713015
375 1 0.766106 0.824869 0.684061
875 2 0.886678 0.935682 0.709938
376 1 0.00227739 0.968384 0.735389
377 1 0.192747 0.0362189 0.726482
381 1 0.00839984 0.212658 0.730394
382 1 0.202196 0.196962 0.728734
401 1 0.00853899 0.0369858 0.792538
402 1 0.194532 0.056118 0.778151
406 1 0.0344177 0.182681 0.791317
407 1 0.236521 0.245349 0.776026
876 2 0.0911842 0.13248 0.755986
378 1 0.397624 0.991745 0.737278
383 1 0.411178 0.213331 0.724658
403 1 0.420469 0.974347 0.784658
408 1 0.387026 0.290743 0.786615
877 2 0.334438 0.140084 0.753078
379 1 0.583088 0.0221617 0.728394
384 1 0.577916 0.254213 0.723987
404 1 0.574244 0.981241 0.764459
409 1 0.511889 0.185424 0.779077
878 2 0.504537 0.138226 0.744919
879 2 0.687725 0.140235 0.746837
380 1 0.793508 0.0295208 0.728594
385 1 0.820034 0.225784 0.723999
405 1 0.812345 0.980548 0.797059
410 1 0.823131 0.16467 0.771974
880 2 0.959282 0.102682 0.753562
386 1 0.00624759 0.393109 0.730383
387 1 0.199052 0.420549 0.729259
411 1 0.963123 0.379244 0.793053
412 1 0.16243 0.388896 0.783903
881 2 0.110909 0.28871 0.752336
388 1 0.351914 0.460793 0.722766
413 1 0.391864 0.432929 0.76606
882 2 0.288716 0.314262 0.747114
389 1 0.656257 0.39377 0.734125
414 1 0.559242 0.388641 0.775888
883 2 0.49714 0.381617 0.738839
884 2 0.774325 0.322786 0.759252
390 1 0.828562 0.401751 0.724401
415 1 0.778731 0.407048 0.790835
885 2 0.926451 0.310637 0.760192
391 1 0.0248332 0.60809 0.730054
392 1 0.176937 0.629465 0.728171
416 1 0.978186 0.535135 0.781962
417 1 0.160014 0.593559 0.785491
886 2 0.0943276 0.48902 0.75471
891 2 0.066164 0.68526 0.765769
393 1 0.38901 0.619903 0.733998
418 1 0.418907 0.558735 0.787888
887 2 0.250682 0.541502 0.754441
892 2 0.330392 0.712352 0.763812
394 1 0.591726 0.635902 0.735979
419 1 0.635359 0.564139 0.789658
888 2 0.544663 0.508568 0.754288
889 2 0.743198 0.500322 0.75267
893 2 0.477335 0.672914 0.760369
894 2 0.700281 0.698121 0.76008
395 1 0.849727 0.623892 0.736092
420 1 0.79751 0.592353 0.786353
890 2 0.911643 0.490365 0.748071
895 2 0.902151 0.677817 0.7694
396 1 0.0158583 0.809484 0.734587
397 1 0.219626 0.782034 0.738354
421 1 0.992533 0.841832 0.776339
422 1 0.168902 0.815285 0.77658
896 2 0.0916726 0.943432 0.766966
398 1 0.371001 0.769454 0.729354
423 1 0.34269 0.831851 0.784889
897 2 0.268105 0.949474 0.759383
399 1 0.634874 0.791449 0.736527
424 1 0.539583 0.793171 0.791125
898 2 0.502892 0.849017 0.750839
899 2 0.690922 0.863655 0.769973
400 1 0.781888 0.801572 0.740999
425 1 0.823774 0.794586 0.793957
900 2 0.891579 0.940197 0.765013
426 1 0.0344202 0.982348 0.842787
427 1 0.289906 0.0704978 0.842057
431 1 0.973583 0.224672 0.826794
432 1 0.204536 0.201677 0.845113
901 2 0.12556 0.104056 0.814446
428 1 0.410835 0.968157 0.826702
433 1 0.367087 0.234959 0.830839
902 2 0.33247 0.147794 0.79894
429 1 0.64253 0.0548609 0.83161
434 1 0.562895 0.235607 0.836808
903 2 0.475869 0.115215 0.820633
904 2 0.684982 0.0754733 0.782714
430 1 0.855222 0.996896 0.835615
435 1 0.72519 0.170452 0.82897
905 2 0.884002 0.106939 0.809805
436 1 0.957056 0.377627 0.836348
437 1 0.246241 0.379167 0.849948
906 2 0.121178 0.286261 0.81928
438 1 0.39165 0.415623 0.825648
907 2 0.267671 0.331613 0.808299
439 1 0.571829 0.398372 0.849777
908 2 0.516273 0.32815 0.809839
909 2 0.630803 0.245978 0.786256
440 1 0.708122 0.319386 0.817526
910 2 0.833649 0.26226 0.803497
441 1 0.103896 0.602355 0.842358
442 1 0.224571 0.714967 0.832026
911 2 0.0687134 0.452234 0.812654
916 2 0.0812065 0.753436 0.813499
443 1 0.394126 0.615337 0.84224
912 2 0.274507 0.496983 0.805989
917 2 0.320231 0.643897 0.801012
444 1 0.617383 0.614419 0.835108
913 2 0.514853 0.506241 0.812141
914 2 0.666187 0.48446 0.821339
918 2 0.481828 0.674379 0.813156
919 2 0.66477 0.729467 0.806239
445 1 0.770157 0.648616 0.829399
915 2 0.839961 0.51205 0.820608
920 2 0.918225 0.6553 0.81395
446 1 0.982429 0.825646 0.856849
447 1 0.158915 0.857045 0.844572
921 2 0.131238 0.930036 0.810115
448 1 0.38673 0.770809 0.829704
922 2 0.275628 0.965592 0.802804
449 1 0.588258 0.78408 0.841122
923 2 0.566534 0.914355 0.817928
924 2 0.702482 0.891921 0.809251
450 1 0.826628 0.797958 0.841517
925 2 0.947591 0.890892 0.814195
451 1 0.0095493 0.0501162 0.910304
452 1 0.195668 0.984493 0.912942
456 1 0.994424 0.260145 0.909343
457 1 0.198221 0.27614 0.893418
926 2 0.0544957 0.127092 0.862675
453 1 0.388017 0.987908 0.895933
458 1 0.415501 0.211759 0.89971
927 2 0.229589 0.12694 0.887834
454 1 0.590169 0.986488 0.873227
459 1 0.574818 0.141167 0.889188
928 2 0.468784 0.124162 0.85767
929 2 0.721438 0.0841719 0.871424
455 1 0.719806 0.0325482 0.906534
460 1 0.820534 0.191641 0.898486
930 2 0.88697 0.147378 0.866831
461 1 0.0918417 0.4169 0.897697
462 1 0.274651 0.449529 0.904195
931 2 0.108288 0.309402 0.861827
463 1 0.400384 0.43953 0.872914
932 2 0.335208 0.230895 0.8674
464 1 0.561571 0.411371 0.898558
933 2 0.483981 0.281356 0.871271
934 2 0.704006 0.248118 0.873036
465 1 0.937776 0.409285 0.896114
935 2 0.828913 0.308746 0.856602
466 1 0.0181531 0.544512 0.886435
467 1 0.188986 0.620411 0.890618
936 2 0.118097 0.470345 0.861018
941 2 0.139268 0.717982 0.865754
468 1 0.383002 0.627421 0.902405