ITEM: TIMESTEP
4570
ITEM: NUMBER OF ATOMS
1000
ITEM: BOX BOUNDS pp pp pp
0.0000000000000000e+00 6.2996052494743662e+00
0.0000000000000000e+00 6.2996052494743662e+00
0.0000000000000000e+00 2.5198420997897465e+01
ITEM: ATOMS id type xs ys zs
11 1 0.114313 0.122077 0.042944
51 1 0.196722 0.2601 0.0293737
477 1 0.164054 0.0787979 0.00624891
957 2 0.256669 0.19094 0.99532
951 2 0.228735 0.0395143 0.06002
58 1 0.64847 0.109102 0.0393726
512 2 0.441708 0.176179 0.0324291
506 2 0.585015 0.228776 0.0629825
983 2 0.722346 0.00785443 0.0131352
14 1 0.686449 0.344641 0.0631804
508 2 0.7638 0.224806 0.0440185
980 2 0.632711 0.130088 0.00104952
485 1 0.8588 0.320114 0.0617794
5 1 0.0386042 0.996757 0.0603707
521 2 0.874045 0.263597 0.0236344
529 2 0.806774 0.00656072 0.0481116
992 2 0.253361 0.392411 0.00660374
977 2 0.115341 0.278456 0.997919
545 2 0.293195 0.379683 0.0454505
40 1 0.135434 0.327293 0.0609578
510 2 0.37724 0.288445 0.00516549
518 2 0.357658 0.501931 0.992009
999 2 0.500358 0.370061 0.976483
484 1 0.737589 0.51691 0.989423
33 1 0.584233 0.313213 0.0278369
49 1 0.558844 0.434406 0.045165
6 1 0.72362 0.40268 0.0280067
989 2 0.589789 0.458852 0.00419074
985 2 0.000787481 0.248465 0.0497192
981 2 0.992846 0.372059 0.0257225
490 1 0.801582 0.365036 0.992529
15 1 0.909138 0.50765 0.0367004
961 2 0.927993 0.477314 0.998393
511 2 0.137162 0.458467 0.0291459
70 1 0.170896 0.613104 0.0398485
516 2 0.366329 0.559841 0.0263835
47 1 0.287438 0.770359 0.00988164
564 2 0.207904 0.66052 0.0843531
18 1 0.421814 0.719365 0.0378385
4 1 0.496443 0.594764 0.99919
43 1 0.453571 0.414818 0.0172388
514 2 0.651098 0.543652 0.0303376
519 2 0.548147 0.626115 0.0548607
3 1 0.601237 0.685955 0.0195354
24 1 0.724994 0.706141 0.00352715
524 2 0.783812 0.629089 0.0468486
45 1 0.97455 0.6535 0.0333697
100 1 0.0377536 0.695762 0.0648878
17 1 0.830073 0.58943 0.0120293
540 2 0.170524 0.778062 0.0533228
544 2 0.031525 0.871906 0.979912
1 1 0.128364 0.912015 0.0369215
12 1 0.406385 0.0459063 0.051076
525 2 0.292394 0.883127 0.0440508
27 1 0.43469 0.871966 0.0593378
8 1 0.450948 0.862196 0.0210042
503 2 0.657839 0.950696 0.0560705
504 2 0.598821 0.861192 0.0305299
9 1 0.728798 0.766283 0.0470831
75 1 0.00529364 0.844395 0.0212033
976 2 0.861942 0.914002 0.0088222
505 2 0.880263 0.77567 0.0246981
500 1 0.841585 0.83955 0.972764
530 2 0.10894 0.0960688 0.0909784
532 2 0.229014 0.156341 0.108837
77 1 0.147178 0.248421 0.143376
26 1 0.209468 0.961347 0.11147
13 1 0.342508 0.0935996 0.0863741
526 2 0.497186 0.15131 0.0837083
36 1 0.342078 0.031632 0.125804
63 1 0.387696 0.265621 0.0980601
528 2 0.714131 0.137435 0.0816951
527 2 0.592511 0.178176 0.120915
59 1 0.851913 0.0891103 0.135721
34 1 0.973885 0.078322 0.104584
80 1 0.950837 0.121089 0.0634913
35 1 0.0971789 0.253551 0.10404
61 1 0.246009 0.292284 0.0809273
89 1 0.132711 0.439574 0.101769
7 1 0.310249 0.202742 0.0523218
517 2 0.370472 0.411177 0.0903414
538 2 0.42775 0.280272 0.0634909
559 2 0.830201 0.445489 0.0865077
998 2 0.491783 0.509388 0.0825803
558 2 0.539397 0.351787 0.0874832
562 2 0.65596 0.440035 0.100102
553 2 0.710485 0.28223 0.0974037
88 1 0.758958 0.420968 0.129521
10 1 0.0466049 0.534945 0.0511358
533 2 0.838672 0.196501 0.0867128
509 2 0.989172 0.392311 0.0714358
99 1 0.911705 0.302068 0.10124
64 1 0.916149 0.447931 0.118144
86 1 0.195773 0.494395 0.0699779
560 2 0.101616 0.77005 0.0995649
71 1 0.902676 0.802182 0.0939196
38 1 0.323605 0.540795 0.108883
23 1 0.530669 0.72955 0.0965223
42 1 0.35046 0.567201 0.0671012
537 2 0.494817 0.60823 0.129887
50 1 0.720162 0.491154 0.0597207
539 2 0.663384 0.678589 0.133059
543 2 0.649703 0.600756 0.0944356
549 2 0.719012 0.763888 0.104619
513 2 0.827644 0.631351 0.110274
39 1 0.982367 0.619577 0.103607
565 2 0.90356 0.579626 0.0702278
95 1 0.868772 0.739677 0.0648647
502 2 0.169211 0.905579 0.0756207
542 2 0.247791 0.81331 0.0976551
37 1 0.32876 0.95843 0.0813744
550 2 0.386713 0.711269 0.0802826
546 2 0.41188 0.868257 0.100933
28 1 0.511431 0.990165 0.0819501
523 2 0.595571 0.777778 0.0638477
548 2 0.606513 0.86363 0.101675
572 2 0.493138 0.800175 0.131416
573 2 0.621516 0.0471936 0.105788
74 1 0.720481 0.867548 0.134114
55 1 0.0392455 0.915109 0.106626
534 2 0.833413 0.0368466 0.0842426
69 1 0.01898 0.849072 0.0679291
574 2 0.87349 0.879613 0.0548597
551 2 0.26104 0.141571 0.151294
555 2 0.110044 0.0579427 0.134293
576 2 0.951626 0.0979766 0.166065
82 1 0.228188 0.0962702 0.195087
81 1 0.110108 0.138273 0.165555
52 1 0.433876 0.149644 0.122006
571 2 0.33884 0.0419673 0.174727
54 1 0.705998 0.222083 0.146581
78 1 0.684358 0.0534844 0.138248
83 1 0.549499 0.236897 0.16524
600 2 0.970978 0.986628 0.140935
554 2 0.855277 0.270141 0.14508
598 2 0.989075 0.18645 0.126287
79 1 0.776761 0.153196 0.174897
65 1 0.235269 0.438042 0.126237
556 2 0.252364 0.388343 0.165775
85 1 0.0994165 0.420596 0.164279
56 1 0.294915 0.295327 0.134633
552 2 0.502215 0.308936 0.1302
53 1 0.385685 0.186595 0.179323
57 1 0.408921 0.321504 0.161045
62 1 0.495203 0.458537 0.145226
557 2 0.523065 0.345964 0.190633
92 1 0.622228 0.362498 0.161082
112 1 0.66245 0.230823 0.192879
84 1 0.833629 0.279539 0.2021
60 1 0.995942 0.292095 0.164703
535 2 0.0360489 0.348975 0.127426
90 1 0.647361 0.53048 0.142498
94 1 0.884414 0.426637 0.154504
41 1 0.128598 0.595573 0.115947
570 2 0.249207 0.688722 0.12743
590 2 0.19724 0.535872 0.152208
547 2 0.392497 0.701474 0.119689
531 2 0.35146 0.48372 0.148925
91 1 0.341784 0.643703 0.159094
116 1 0.491494 0.602752 0.167224
536 2 0.567913 0.733047 0.161411
68 1 0.754033 0.752776 0.159749
587 2 0.681946 0.625836 0.198634
66 1 0.987737 0.523365 0.145543
563 2 0.799403 0.597393 0.152032
96 1 0.882893 0.79718 0.129951
541 2 0.984627 0.667684 0.140403
76 1 0.162279 0.818585 0.131487
566 2 0.243789 0.796426 0.166249
101 1 0.238808 0.95116 0.14767
48 1 0.39536 0.903964 0.161483
567 2 0.305058 0.831768 0.19884
72 1 0.440439 0.759629 0.185709
97 1 0.308652 0.821007 0.130064
93 1 0.562206 0.930712 0.153091
73 1 0.470942 0.976103 0.123291
98 1 0.485303 0.0628722 0.157335
569 2 0.656075 0.918601 0.190828
614 2 0.807221 0.841174 0.185991
44 1 0.856387 0.93984 0.115121
575 2 0.758792 0.907871 0.0868451
125 1 0.795108 0.965289 0.159108
605 2 0.953741 0.903216 0.175115
580 2 0.115672 0.905021 0.161857
106 1 0.0416065 0.22884 0.278153
581 2 0.235191 0.25126 0.178052
582 2 0.133936 0.194026 0.226197
110 1 0.00569946 0.0835834 0.232694
602 2 0.360213 0.0187583 0.210679
108 1 0.486132 0.0723266 0.195435
603 2 0.476309 0.112223 0.238036
128 1 0.311731 0.228104 0.213203
577 2 0.644457 0.074468 0.187786
578 2 0.626602 0.145863 0.224706
103 1 0.54149 0.952239 0.23099
104 1 0.931513 0.15968 0.259161
604 2 0.886767 0.143188 0.203727
599 2 0.798877 0.0265568 0.19672
579 2 0.781486 0.176175 0.228358
593 2 0.690403 0.991961 0.229449
623 2 0.785192 0.0647152 0.265239
610 2 0.197475 0.401613 0.202731
585 2 0.0580645 0.339447 0.202439
615 2 0.976345 0.478228 0.192106
137 1 0.226558 0.291669 0.236566
140 1 0.086872 0.43529 0.232306
611 2 0.321981 0.406034 0.233232
586 2 0.399218 0.547832 0.214489
87 1 0.338057 0.364926 0.196635
632 2 0.391689 0.240778 0.248344
583 2 0.470788 0.232868 0.214921
139 1 0.591703 0.501727 0.198141
635 2 0.635457 0.358555 0.22076
109 1 0.824441 0.345498 0.236888
584 2 0.780524 0.472516 0.264315
609 2 0.959192 0.253181 0.230668
595 2 0.15818 0.668341 0.172135
122 1 0.18454 0.70043 0.210359
111 1 0.0941555 0.556672 0.205367
561 2 0.279946 0.518712 0.186045
607 2 0.226366 0.537696 0.23031
591 2 0.337905 0.685869 0.208141
613 2 0.411464 0.674534 0.239791
592 2 0.56176 0.540543 0.235286
589 2 0.763624 0.432149 0.178343
67 1 0.507339 0.651167 0.212124
639 2 0.734199 0.470042 0.217375
113 1 0.829096 0.679697 0.189619
588 2 0.978919 0.650675 0.182831
141 1 0.0144635 0.559623 0.242255
115 1 0.876274 0.50175 0.227365
146 1 0.899117 0.680583 0.245649
601 2 0.0863838 0.00040614 0.191459
596 2 0.0701696 0.790144 0.196971
102 1 0.21453 0.941818 0.19604
621 2 0.120954 0.854572 0.229047
597 2 0.501022 0.914599 0.189704
622 2 0.368738 0.900525 0.234963
568 2 0.605248 0.805214 0.213781
618 2 0.76501 0.629745 0.229119
123 1 0.753632 0.836662 0.222175
121 1 0.0413139 0.691563 0.227955
120 1 0.93754 0.770242 0.163294
105 1 0.963199 0.938073 0.219203
594 2 0.915421 0.773186 0.208697
606 2 0.191879 0.185525 0.262082
157 1 0.325981 0.214669 0.282331
151 1 0.176482 0.178623 0.300093
107 1 0.318089 0.102997 0.246461
647 2 0.477053 0.158385 0.274355
133 1 0.441751 0.301229 0.289467
134 1 0.560049 0.275217 0.248274
129 1 0.58667 0.985031 0.269985
628 2 0.592598 0.299517 0.303026
160 1 0.651799 0.164766 0.267897
124 1 0.844101 0.955021 0.232566
126 1 0.908413 0.147499 0.299382
630 2 0.712749 0.971591 0.290109
132 1 0.269927 0.379671 0.293779
136 1 0.0155906 0.423101 0.294696
637 2 0.157271 0.38525 0.26443
657 2 0.11605 0.310019 0.311686
163 1 0.332327 0.705092 0.271747
638 2 0.413402 0.403585 0.264031
119 1 0.563176 0.445509 0.261656
634 2 0.472597 0.416065 0.223194
665 2 0.645527 0.43533 0.291284
135 1 0.718551 0.327972 0.265555
145 1 0.962523 0.409406 0.258763
640 2 0.904875 0.298742 0.287639
161 1 0.775784 0.350076 0.304421
616 2 0.18806 0.653553 0.257142
617 2 0.255196 0.524893 0.270807
641 2 0.0564762 0.714874 0.311132
642 2 0.20068 0.653724 0.29685
636 2 0.0815162 0.532768 0.275518
608 2 0.412935 0.53535 0.251284
117 1 0.263081 0.769121 0.239445
148 1 0.447409 0.761792 0.288415
114 1 0.56701 0.695273 0.257502
619 2 0.683642 0.578916 0.261534
143 1 0.571135 0.657909 0.294578
144 1 0.637276 0.813738 0.274749
645 2 0.756567 0.536856 0.307152
166 1 0.912051 0.552514 0.273183
625 2 0.053569 0.698876 0.273685
150 1 0.0840688 0.0876691 0.274301
650 2 0.13079 0.00845054 0.239262
172 1 0.0743753 0.91859 0.269189
626 2 0.178681 0.994007 0.301358
152 1 0.249452 0.922479 0.253805
127 1 0.443993 0.00908756 0.264505
147 1 0.338531 0.894519 0.287586
672 2 0.166432 0.800155 0.283746
627 2 0.294429 0.062173 0.288354
130 1 0.788096 0.882581 0.264498
118 1 0.489337 0.856998 0.257961
624 2 0.591494 0.827613 0.30963
649 2 0.95513 0.828666 0.254812
644 2 0.775656 0.680357 0.283705
646 2 0.858469 0.805052 0.297352
175 1 0.932467 0.997409 0.275249
651 2 0.164725 0.259131 0.353859
652 2 0.179115 0.0876073 0.333576
671 2 0.0243075 0.0561809 0.30826
677 2 0.111054 0.128335 0.373228
182 1 0.975557 0.264864 0.360343
153 1 0.457828 0.98568 0.300353
653 2 0.545841 0.159895 0.30831
183 1 0.307877 0.126889 0.364809
178 1 0.37483 0.980623 0.357925
164 1 0.612758 0.149137 0.350052
655 2 0.746927 0.0593248 0.327091
154 1 0.608204 0.0113163 0.315694
673 2 0.466031 0.0519895 0.33317
131 1 0.767858 0.204807 0.302169
660 2 0.817486 0.270296 0.369718
680 2 0.885149 0.153341 0.341182
612 2 0.189832 0.459745 0.320778
156 1 0.0505445 0.177241 0.328847
662 2 0.241563 0.40334 0.360982
187 1 0.0323022 0.414384 0.341199
158 1 0.291548 0.26889 0.324401
138 1 0.388908 0.502617 0.296943
188 1 0.385872 0.320411 0.361265
663 2 0.469946 0.456912 0.355889
633 2 0.412761 0.384311 0.322
169 1 0.605107 0.503426 0.326137
165 1 0.721779 0.237452 0.339175
190 1 0.554175 0.315083 0.350316
185 1 0.733222 0.374767 0.349589
661 2 0.894451 0.46938 0.320435
656 2 0.905202 0.295983 0.328181
631 2 0.137142 0.520645 0.355853
162 1 0.227452 0.609586 0.333736
167 1 0.0799361 0.572598 0.317344
667 2 0.176921 0.846738 0.319116
192 1 0.968187 0.584283 0.342269
142 1 0.353245 0.63949 0.315539
168 1 0.337615 0.740893 0.352369
692 2 0.342397 0.510615 0.338538
643 2 0.497721 0.601259 0.344227
173 1 0.487596 0.753165 0.349197
170 1 0.603132 0.696455 0.33401
664 2 0.658258 0.594456 0.361343
193 1 0.611326 0.767288 0.372284
620 2 0.914598 0.653926 0.307356
171 1 0.93424 0.789832 0.329172
195 1 0.746175 0.742604 0.331237
666 2 0.828714 0.599022 0.337546
197 1 0.0187644 0.884981 0.306319
177 1 0.296847 0.97184 0.326162
176 1 0.119152 0.959701 0.347746
696 2 0.0788699 0.806884 0.343626
648 2 0.306861 0.773631 0.315074
198 1 0.435488 0.837946 0.323449
629 2 0.694815 0.964561 0.357901
149 1 0.563955 0.878336 0.347374
670 2 0.733917 0.892613 0.321629
155 1 0.853406 0.984321 0.30521
180 1 0.866459 0.999172 0.345971
196 1 0.985653 0.90217 0.36248
674 2 0.821482 0.854082 0.352119
681 2 0.0359721 0.148559 0.408209
201 1 0.223875 0.998934 0.38043
675 2 0.0112228 0.0582573 0.349213
706 2 0.213182 0.131554 0.401518
700 2 0.0698378 0.975182 0.398341
208 1 0.452474 0.105209 0.374155
682 2 0.275222 0.283046 0.38735
679 2 0.664121 0.279821 0.384039
179 1 0.59286 0.135472 0.39084
204 1 0.701826 0.994121 0.39587
703 2 0.577134 0.0197198 0.419645
678 2 0.497305 0.257352 0.389678
654 2 0.779734 0.100574 0.368528
699 2 0.924884 0.11476 0.377835
212 1 0.131423 0.267712 0.389731
687 2 0.169985 0.417997 0.400368
237 1 0.143423 0.289802 0.425679
710 2 0.999608 0.384882 0.386703
683 2 0.507051 0.444569 0.395621
688 2 0.349688 0.462941 0.382463
213 1 0.402431 0.5629 0.405735
707 2 0.381003 0.344104 0.410325
658 2 0.468546 0.198186 0.343537
159 1 0.651638 0.428537 0.380537
184 1 0.688695 0.239185 0.428496
659 2 0.811705 0.375552 0.395641
181 1 0.947646 0.259795 0.400276
211 1 0.89454 0.458977 0.361161
686 2 0.0573226 0.561892 0.395715
691 2 0.0845422 0.668672 0.356827
217 1 0.21122 0.556681 0.387703
717 2 0.284871 0.676579 0.404363
218 1 0.409334 0.655764 0.374893
222 1 0.223065 0.704875 0.371537
718 2 0.484943 0.722856 0.400523
189 1 0.551474 0.586931 0.386897
693 2 0.683634 0.698736 0.408863
669 2 0.773579 0.737616 0.369856
690 2 0.769626 0.530931 0.384002
689 2 0.624047 0.496992 0.415754
186 1 0.92128 0.612811 0.382726
191 1 0.933768 0.759156 0.370178
685 2 0.926829 0.461087 0.41365
216 1 0.0394873 0.707665 0.402868
247 1 0.125554 0.812422 0.386338
676 2 0.251254 0.857461 0.355721
697 2 0.280031 0.850838 0.393877
698 2 0.579407 0.938659 0.381533
223 1 0.435503 0.848013 0.377926
203 1 0.38057 0.961176 0.403361
194 1 0.707582 0.831527 0.425964
174 1 0.71921 0.843336 0.387985
668 2 0.542657 0.85628 0.412188
199 1 0.828822 0.770656 0.405697
221 1 0.981331 0.859839 0.397783
205 1 0.87103 0.952164 0.388441
231 1 0.100338 0.0447114 0.436804
202 1 0.266435 0.0922104 0.43243
207 1 0.424088 0.10712 0.421529
232 1 0.30008 0.244796 0.431228
708 2 0.395941 0.970593 0.441357
233 1 0.466694 0.113958 0.461395
704 2 0.606489 0.0706151 0.453181
229 1 0.535828 0.203376 0.430737
749 2 0.739651 0.0556311 0.429481
206 1 0.902212 0.0420453 0.413347
209 1 0.789043 0.170549 0.40077
230 1 0.818753 0.179811 0.445933
705 2 0.900842 0.0253171 0.450404
235 1 0.97248 0.184444 0.443527
236 1 0.157047 0.184185 0.454998
711 2 0.0640333 0.455109 0.430295
736 2 0.163144 0.411481 0.462998
712 2 0.303327 0.362695 0.457235
238 1 0.402811 0.466668 0.441195
214 1 0.418018 0.243294 0.453861
684 2 0.51201 0.351227 0.430018
709 2 0.68141 0.392291 0.440817
234 1 0.6067 0.279482 0.461369
215 1 0.793114 0.498069 0.4373
210 1 0.838487 0.326207 0.430651
715 2 0.942276 0.437201 0.451859
695 2 0.153834 0.626095 0.423134
242 1 0.240823 0.472887 0.431861
246 1 0.0199309 0.701951 0.461114
241 1 0.0903322 0.554012 0.45761
272 1 0.244244 0.608242 0.468358
716 2 0.385319 0.642137 0.450762
243 1 0.351309 0.752211 0.476239
737 2 0.444408 0.52201 0.474036
714 2 0.659148 0.513816 0.476808
713 2 0.525337 0.579703 0.437016
694 2 0.666445 0.625329 0.447134
244 1 0.562014 0.727434 0.435808
200 1 0.821564 0.63535 0.410849
240 1 0.847382 0.62329 0.458298
220 1 0.973411 0.601267 0.430724
701 2 0.038769 0.972889 0.473785
720 2 0.124161 0.783582 0.427388
721 2 0.2231 0.951684 0.426572
725 2 0.0160076 0.914693 0.432944
746 2 0.13957 0.858455 0.463038
741 2 0.248833 0.729581 0.44433
722 2 0.299905 0.874708 0.458458
723 2 0.370397 0.797959 0.425242
748 2 0.468031 0.821077 0.460021
224 1 0.612193 0.906222 0.453041
719 2 0.649653 0.752475 0.468056
724 2 0.836591 0.90754 0.426549
225 1 0.894875 0.777743 0.447015
250 1 0.776016 0.863487 0.46914
726 2 0.235195 0.00730094 0.463024
252 1 0.0724989 0.113228 0.543456
727 2 0.155323 0.0979925 0.501693
731 2 0.0625311 0.223915 0.510041
702 2 0.382629 0.0270679 0.481006
228 1 0.37871 0.0791233 0.515668
729 2 0.555228 0.106051 0.501247
255 1 0.748749 0.0183559 0.469196
754 2 0.78862 0.117383 0.516898
259 1 0.704802 0.165367 0.482553
730 2 0.868114 0.120111 0.483338
755 2 0.0153329 0.108861 0.483693
799 2 0.920464 0.197742 0.514099
257 1 0.279933 0.146546 0.471151
261 1 0.230214 0.29099 0.482751
265 1 0.0465295 0.452744 0.48882
732 2 0.40164 0.38909 0.488494
733 2 0.372562 0.213348 0.49943
763 2 0.541905 0.438904 0.500656
262 1 0.251748 0.468982 0.48824
728 2 0.540615 0.240978 0.491974
239 1 0.521298 0.391286 0.466845
739 2 0.759496 0.296488 0.466237
284 1 0.631748 0.214225 0.518633
734 2 0.906181 0.273934 0.470991
264 1 0.760435 0.307562 0.50555
735 2 0.0453185 0.293509 0.468277
260 1 0.918717 0.40246 0.504331
245 1 0.813744 0.441066 0.47381
267 1 0.0626362 0.831607 0.509798
266 1 0.122689 0.673372 0.495948
248 1 0.460219 0.73033 0.506498
742 2 0.340029 0.606362 0.499759
263 1 0.401671 0.475982 0.524779
219 1 0.649584 0.636232 0.500209
738 2 0.523304 0.657487 0.4724
269 1 0.650159 0.484357 0.521857
769 2 0.584922 0.74575 0.542476
744 2 0.799771 0.55072 0.503043
740 2 0.929808 0.555337 0.480561
275 1 0.80845 0.712548 0.484187
296 1 0.952975 0.67712 0.500222
770 2 0.940643 0.538649 0.518215
227 1 0.183824 0.935885 0.498089
251 1 0.0522229 0.973345 0.515748
745 2 0.948398 0.842516 0.478014
271 1 0.950522 0.881592 0.55145
793 2 0.179679 0.827842 0.538183
254 1 0.521704 0.969195 0.475265
747 2 0.242624 0.777369 0.498551
772 2 0.393294 0.871008 0.502849
249 1 0.556558 0.82896 0.492181
253 1 0.447182 0.83884 0.538811
274 1 0.709845 0.997358 0.50839
774 2 0.703145 0.82584 0.506318
226 1 0.897979 0.966357 0.497557
750 2 0.893897 0.825634 0.514251
276 1 0.120272 0.235816 0.581976
282 1 0.259573 0.159138 0.585277
751 2 0.214903 0.228067 0.520768
278 1 0.232949 0.0746762 0.539498
258 1 0.334829 0.244593 0.551174
283 1 0.371095 0.103595 0.558542
303 1 0.461309 0.984075 0.552589
778 2 0.518617 0.146422 0.54678
309 1 0.661906 0.0675509 0.542865
285 1 0.76653 0.0628687 0.570812
310 1 0.672122 0.206242 0.563771
780 2 0.89588 0.129091 0.557
776 2 0.00125398 0.318371 0.586509
756 2 0.157971 0.331014 0.55437
760 2 0.120054 0.391196 0.518092
758 2 0.474099 0.286188 0.525158
288 1 0.38569 0.254407 0.587017
757 2 0.30356 0.350644 0.512761
762 2 0.303092 0.405219 0.547495
764 2 0.584043 0.350228 0.541503
289 1 0.533064 0.186298 0.583543
290 1 0.723856 0.343836 0.559225
788 2 0.456137 0.353844 0.566582
789 2 0.627162 0.44371 0.570789
256 1 0.0029383 0.252349 0.543193
281 1 0.828459 0.250278 0.578254
759 2 0.838163 0.27347 0.538864
765 2 0.940932 0.384251 0.556214
761 2 0.0987416 0.545952 0.518246
291 1 0.0654305 0.464627 0.561581
292 1 0.218782 0.513466 0.569201
766 2 0.0230826 0.720724 0.537985
767 2 0.168517 0.662927 0.529354
817 2 0.216563 0.709043 0.579253
293 1 0.297998 0.597772 0.535245
323 1 0.373196 0.697213 0.590642
268 1 0.498649 0.495216 0.551055
743 2 0.496567 0.58834 0.515085
319 1 0.519365 0.607164 0.581941
294 1 0.61233 0.600751 0.543823
270 1 0.811289 0.424649 0.532965
300 1 0.822668 0.702173 0.527468
791 2 0.925825 0.535827 0.5575
790 2 0.78656 0.477402 0.579149
771 2 0.15822 0.960588 0.55732
298 1 0.0909228 0.795992 0.566332
752 2 0.309569 0.918145 0.535713
273 1 0.338416 0.741285 0.530137
753 2 0.496885 0.959035 0.513968
322 1 0.302191 0.821351 0.564209
773 2 0.461481 0.799802 0.574766
279 1 0.770531 0.894033 0.536175
768 2 0.455381 0.652982 0.550545
299 1 0.700689 0.759535 0.565925
779 2 0.621374 0.908246 0.544042
325 1 0.668675 0.889365 0.58566
775 2 0.897003 1.00029 0.533584
297 1 0.89034 0.729451 0.566154
796 2 0.992974 0.994613 0.577956
295 1 0.782135 0.574937 0.546202
800 2 0.836891 0.924111 0.578153
277 1 0.140332 0.0674985 0.583687
802 2 0.0919 0.126279 0.658721
327 1 0.0652316 0.978955 0.614284
781 2 0.0313547 0.227453 0.637583
783 2 0.41509 0.0980214 0.593658
777 2 0.313584 0.0250822 0.629792
304 1 0.468005 0.0724395 0.630913
808 2 0.362552 0.184878 0.620195
308 1 0.587187 0.0559879 0.57553
804 2 0.70519 0.215963 0.600243
809 2 0.518297 0.23714 0.623793
301 1 0.879021 0.139732 0.64073
280 1 0.741196 0.992416 0.607166
784 2 0.83507 0.124827 0.601668
321 1 1.00032 0.121898 0.601864
331 1 0.115293 0.33978 0.630601
312 1 0.246093 0.414067 0.63444
286 1 0.126789 0.42323 0.595921
782 2 0.263669 0.355983 0.586482
307 1 0.227092 0.263234 0.620323
787 2 0.50446 0.478678 0.594573
314 1 0.590212 0.328921 0.592645
313 1 0.633417 0.535381 0.613642
340 1 0.764193 0.404763 0.649095
785 2 0.67614 0.391964 0.619618
315 1 0.782801 0.528892 0.61702
810 2 0.879055 0.300001 0.609436
311 1 0.95238 0.464868 0.589514
840 2 0.918041 0.426658 0.62943
287 1 0.107429 0.612289 0.562648
317 1 0.268853 0.544025 0.606975
316 1 0.127131 0.510975 0.635931
342 1 0.129514 0.626944 0.612864
792 2 0.379856 0.538982 0.578066
818 2 0.289877 0.705566 0.623695
338 1 0.417954 0.542285 0.623751
794 2 0.683395 0.60615 0.579261
814 2 0.730021 0.68907 0.611334
813 2 0.546601 0.665601 0.629997
320 1 0.864053 0.614684 0.592453
815 2 0.851335 0.668456 0.636117
816 2 0.977534 0.580259 0.624201
797 2 0.0169131 0.678393 0.593045
798 2 0.178591 0.853811 0.591696
302 1 0.158899 0.108511 0.623132
821 2 0.0137052 0.856659 0.597977
347 1 0.141232 0.763891 0.632185
819 2 0.472898 0.807108 0.61164
822 2 0.310022 0.968303 0.577114
823 2 0.449911 0.947868 0.596551
348 1 0.316674 0.85205 0.610516
324 1 0.598394 0.735166 0.593834
824 2 0.588333 0.963588 0.611772
349 1 0.69247 0.834023 0.619521
326 1 0.894373 0.980547 0.61321
795 2 0.839749 0.767416 0.596716
346 1 0.987439 0.742208 0.633455
820 2 0.834875 0.823363 0.635802
328 1 0.201103 0.925781 0.627969
332 1 0.175811 0.0887752 0.68669
357 1 0.954782 0.155159 0.67946
803 2 0.313445 0.146709 0.654294
334 1 0.505342 0.0420572 0.67255
849 2 0.651276 0.0892342 0.631783
335 1 0.487808 0.224738 0.667611
829 2 0.382692 0.113901 0.689394
306 1 0.736053 0.251441 0.639531
826 2 0.894595 0.295016 0.645422
305 1 0.809589 0.000511434 0.648537
850 2 0.691684 0.0258455 0.674899
356 1 0.803625 0.137036 0.681851
801 2 0.0725463 0.305673 0.665103
786 2 0.175471 0.394331 0.682406
806 2 0.00560631 0.446761 0.662604
832 2 0.21659 0.243031 0.668955
837 2 0.443186 0.464623 0.667929
807 2 0.293987 0.45195 0.669201
333 1 0.391264 0.401285 0.615173
364 1 0.336785 0.287223 0.687096
833 2 0.393583 0.324712 0.649437
339 1 0.536567 0.418227 0.64161
834 2 0.615115 0.527928 0.668137
835 2 0.616426 0.355878 0.673515
359 1 0.486192 0.337756 0.688107
336 1 0.873649 0.450187 0.684534
812 2 0.111643 0.544241 0.672758
836 2 0.10602 0.800577 0.668309
862 2 0.214594 0.664955 0.686209
318 1 0.268718 0.612244 0.653835
838 2 0.372296 0.5803 0.68731
343 1 0.415134 0.703912 0.652304
839 2 0.695322 0.622984 0.64321
344 1 0.531977 0.658975 0.675497
844 2 0.540561 0.513391 0.700025
365 1 0.688293 0.445794 0.695613
811 2 0.846754 0.549562 0.654094
341 1 0.997331 0.685286 0.669196
366 1 0.760804 0.730052 0.669486
842 2 0.264489 0.854694 0.663463
846 2 0.00856159 0.899482 0.646336
847 2 0.191366 0.81934 0.701356
372 1 0.163964 0.974033 0.661841
841 2 0.016724 0.845976 0.698833
329 1 0.411961 0.90378 0.637712
843 2 0.329353 0.759855 0.688174
827 2 0.36158 0.977903 0.671035
828 2 0.469816 0.676713 0.713111
345 1 0.624918 0.748801 0.658265
350 1 0.616074 0.918151 0.65016
374 1 0.494827 0.831876 0.671626
825 2 0.887263 0.817958 0.669998
845 2 0.748388 0.872734 0.686187
851 2 0.107135 0.222929 0.705637
852 2 0.105416 0.0884477 0.726088
377 1 0.233972 0.107122 0.753573
881 2 0.181573 0.328622 0.723068
900 2 0.0879133 0.0174907 0.762403
358 1 0.251089 0.182213 0.708975
355 1 0.54359 0.135676 0.699898
353 1 0.420381 0.224165 0.715214
330 1 0.632369 0.179046 0.671445
375 1 0.576301 0.929214 0.698521
855 2 0.71232 0.105488 0.713462
879 2 0.77513 0.988106 0.735364
385 1 0.714766 0.205 0.761535
351 1 0.972458 0.172626 0.72257
830 2 0.829692 0.21042 0.734906
381 1 0.104218 0.189877 0.754449
831 2 0.0488492 0.40374 0.725636
363 1 0.240341 0.475619 0.736935
387 1 0.10095 0.559207 0.760328
389 1 0.429124 0.362094 0.738511
889 2 0.56762 0.531112 0.739783
360 1 0.657598 0.253135 0.719432
805 2 0.98814 0.31068 0.699735
337 1 0.835616 0.514042 0.722828
361 1 0.784663 0.303318 0.678683
859 2 0.62419 0.355263 0.758814
384 1 0.882279 0.374336 0.727815
362 1 0.985342 0.542526 0.695385
368 1 0.164667 0.520661 0.706584
861 2 0.0488158 0.661005 0.715204
386 1 0.972037 0.547204 0.734476
886 2 0.0900854 0.746879 0.748118
867 2 0.241398 0.812086 0.750671
369 1 0.426678 0.523584 0.729514
848 2 0.31227 0.661565 0.728211
863 2 0.347334 0.435398 0.705223
393 1 0.340054 0.56169 0.762758
898 2 0.394126 0.772451 0.762685
864 2 0.577165 0.382973 0.719964
370 1 0.661288 0.606965 0.706364
868 2 0.591726 0.707517 0.734785
860 2 0.858391 0.637216 0.683824
865 2 0.888857 0.680939 0.723517
870 2 0.736456 0.715045 0.725813
390 1 0.697923 0.468859 0.734414
890 2 0.852169 0.508734 0.761459
872 2 0.21129 0.987414 0.715034
367 1 0.101899 0.887067 0.739503
371 1 0.95751 0.810766 0.747757
373 1 0.322659 0.890121 0.724134
873 2 0.409151 0.00667706 0.714782
379 1 0.475245 0.83864 0.725026
423 1 0.398777 0.946305 0.752216
869 2 0.656008 0.866672 0.726434
874 2 0.603078 0.762821 0.699626
400 1 0.488103 0.649383 0.760925
380 1 0.53026 0.0316628 0.742621
352 1 0.0198201 0.00214298 0.677362
875 2 0.875893 0.832983 0.712948
871 2 0.969124 0.97562 0.729019
376 1 0.830631 0.999696 0.698077
396 1 0.767337 0.827267 0.75185
383 1 0.163555 0.0878201 0.789505
880 2 0.00327529 0.16975 0.782611
402 1 0.0791745 0.137629 0.824033
403 1 0.281846 0.930379 0.816915
354 1 0.380081 0.141267 0.750115
882 2 0.291787 0.276987 0.749634
382 1 0.31692 0.0706782 0.782153
883 2 0.410127 0.182429 0.803694
853 2 0.656995 0.0680778 0.760942
924 2 0.577701 0.146731 0.787546
876 2 0.907495 0.0996891 0.75881
922 2 0.984724 0.0172936 0.80499
405 1 0.808586 0.157078 0.7898
435 1 0.90715 0.265815 0.76828
858 2 0.13538 0.373694 0.762065
856 2 0.983428 0.418984 0.758235
411 1 0.180096 0.369253 0.799734
407 1 0.0418001 0.303303 0.802268
857 2 0.309379 0.403801 0.76916
854 2 0.4199 0.307503 0.777488
934 2 0.504021 0.292367 0.824277
412 1 0.324625 0.33928 0.808348
388 1 0.585582 0.297985 0.794152
413 1 0.238617 0.217858 0.789986
909 2 0.554758 0.216751 0.749273
888 2 0.620783 0.381498 0.840354
414 1 0.707427 0.464452 0.778028
410 1 0.719444 0.301901 0.805225
440 1 0.750893 0.458733 0.818832
884 2 0.788571 0.355718 0.76946
915 2 0.887349 0.445716 0.795488
885 2 0.988103 0.5751 0.789807
866 2 0.193824 0.669702 0.77331
422 1 0.0707164 0.734516 0.790012
893 2 0.398188 0.608727 0.795032
892 2 0.487228 0.44412 0.779128
406 1 0.268331 0.508058 0.795082
919 2 0.521921 0.718471 0.793503
394 1 0.584841 0.571058 0.780094
399 1 0.628367 0.759323 0.772162
887 2 0.581318 0.457644 0.808391
391 1 0.707938 0.610588 0.752858
395 1 0.805637 0.603154 0.789837
895 2 0.903704 0.666422 0.762335
398 1 0.0470926 0.89493 0.774554
897 2 0.125281 0.963458 0.814951
428 1 0.0319652 0.852069 0.811955
397 1 0.242681 0.967224 0.763211
378 1 0.485375 0.0050217 0.784052
430 1 0.353598 0.888574 0.784919
404 1 0.508529 0.848538 0.777092
899 2 0.696933 0.869077 0.803112
425 1 0.65452 0.928436 0.768455
420 1 0.809465 0.767575 0.794726
896 2 0.884933 0.910763 0.783453
920 2 0.789681 0.00477368 0.799563
877 2 0.229386 0.123827 0.828906
447 1 0.102873 0.100061 0.883136
431 1 0.146247 0.034191 0.847496
426 1 0.118171 0.214354 0.861515
878 2 0.336076 0.0323304 0.853887
409 1 0.376956 0.271265 0.843935
427 1 0.420654 0.128389 0.881366
434 1 0.49724 0.121595 0.833381
908 2 0.247226 0.145323 0.868551
904 2 0.755271 0.101237 0.825536
949 2 0.627544 0.0285971 0.813428
964 2 0.644255 0.196921 0.829741
417 1 0.923397 0.147352 0.820843
450 1 0.858669 0.994461 0.842858
401 1 0.991786 0.967804 0.851754
429 1 0.684104 0.225317 0.865858
416 1 0.0637805 0.465608 0.815862
912 2 0.958115 0.286239 0.839639
418 1 0.266502 0.446593 0.838603
937 2 0.198984 0.306631 0.83495
436 1 0.965181 0.291892 0.880578
439 1 0.328572 0.482364 0.879675
933 2 0.650212 0.331781 0.888616
939 2 0.668037 0.587528 0.831481
935 2 0.791219 0.331775 0.843924
894 2 0.488188 0.465982 0.847396
469 1 0.776659 0.474831 0.868516
931 2 0.844475 0.184426 0.867262
930 2 0.882004 0.30321 0.808548
944 2 0.900631 0.454853 0.842114
891 2 0.120527 0.603355 0.802121
940 2 0.177851 0.568714 0.85924
473 1 0.122608 0.72821 0.829087
392 1 0.238928 0.62027 0.821806
443 1 0.410185 0.466498 0.811687
917 2 0.291788 0.750691 0.852109
419 1 0.440773 0.735498 0.869519
942 2 0.358407 0.599698 0.847363
415 1 0.68479 0.684454 0.798921
914 2 0.695179 0.7284 0.852612
938 2 0.509555 0.621584 0.843724
910 2 0.0185042 0.627914 0.837814
911 2 0.958531 0.698571 0.813201
441 1 0.0384083 0.540087 0.871752
445 1 0.821927 0.632092 0.827756
945 2 0.823794 0.628194 0.895037
946 2 0.832528 0.719692 0.862593
921 2 0.993773 0.776695 0.844238
499 1 0.124473 0.874715 0.845025
926 2 0.066501 0.913795 0.87997
424 1 0.211885 0.783625 0.795918
449 1 0.371476 0.778462 0.812912
902 2 0.261879 0.891512 0.855861
903 2 0.41772 0.946028 0.878189
923 2 0.442204 0.96018 0.817012
444 1 0.571409 0.830229 0.823865
948 2 0.449888 0.853205 0.84286
446 1 0.550549 0.972042 0.847729
421 1 0.847698 0.833658 0.826444
925 2 0.695634 0.881228 0.845109
941 2 0.692898 0.0409707 0.859975
906 2 0.101994 0.297182 0.894065
457 1 0.113277 0.14657 0.930614
451 1 0.0242878 0.0314381 0.943743
453 1 0.260519 0.98912 0.889966
907 2 0.237657 0.167343 0.907908
478 1 0.353478 0.0483353 0.912632
974 2 0.559916 0.0628165 0.885423
928 2 0.534045 0.219358 0.858816
459 1 0.648738 0.137019 0.91546
905 2 0.993316 0.169074 0.908101
481 1 0.838079 0.185624 0.921724
950 2 0.96483 0.0606484 0.881886
975 2 0.78606 0.0460765 0.891917
901 2 0.262723 0.322365 0.883334
408 1 0.0806994 0.397619 0.857616
461 1 0.0419995 0.422426 0.924374
438 1 0.170727 0.443037 0.891517
433 1 0.371607 0.253308 0.898781
913 2 0.407029 0.35799 0.871247
958 2 0.34296 0.401973 0.912009
460 1 0.807009 0.334083 0.89343
464 1 0.546708 0.23525 0.958428