ITEM: TIMESTEP
18770
ITEM: NUMBER OF ATOMS
1000
ITEM: BOX BOUNDS pp pp pp
0.0000000000000000e+00 6.2996052494743662e+00
0.0000000000000000e+00 6.2996052494743662e+00
0.0000000000000000e+00 2.5198420997897465e+01
ITEM: ATOMS id type xs ys zs
51 1 0.130154 0.138671 0.0866171
512 2 0.203427 0.0679649 0.0241685
471 1 0.000255148 0.291044 0.0536655
967 2 0.999202 0.0810608 0.0560928
959 2 0.0658356 0.168299 0.0193282
526 2 0.308407 0.989437 0.0051202
34 1 0.320459 0.191232 0.0306954
560 2 0.251047 0.0165096 0.0622879
17 1 0.432966 0.211315 0.0582003
507 2 0.550737 0.108476 0.0482505
27 1 0.668658 0.203992 0.0346114
4 1 0.694647 0.0463376 0.991114
24 1 0.625066 0.209833 0.992503
518 2 0.713749 0.0357144 0.0378221
918 2 0.892808 0.228669 0.0306808
488 1 0.918351 0.0781498 0.0139486
498 1 0.848912 0.0801936 0.0507276
482 1 0.134656 0.443215 0.0667772
92 1 0.172953 0.208852 0.0481436
48 1 0.336256 0.532748 0.0430522
994 2 0.974303 0.503196 0.0213745
511 2 0.332214 0.305433 0.999401
527 2 0.471899 0.255888 0.0227707
63 1 0.400063 0.414491 0.031257
52 1 0.266512 0.329239 0.0413142
477 1 0.56122 0.379692 0.0520039
977 2 0.72489 0.37581 0.0484276
503 2 0.596068 0.356743 0.0149642
79 1 0.459079 0.443054 0.999323
73 1 0.85991 0.373719 0.999269
529 2 0.814296 0.532849 0.0440012
16 1 0.877127 0.381961 0.0361152
496 1 0.740253 0.291814 0.0110696
454 1 0.0508191 0.573524 0.995323
139 1 0.0968717 0.751269 0.00954418
85 1 0.172192 0.551948 0.0436456
9 1 0.307502 0.647797 0.0702153
514 2 0.471457 0.670598 0.0631622
478 1 0.284724 0.619823 0.00543539
15 1 0.493646 0.50463 0.0751385
520 2 0.700975 0.458485 0.0115762
33 1 0.553702 0.507485 0.0313215
6 1 0.652696 0.641595 0.0504675
487 1 0.0277593 0.650265 0.0425517
987 2 0.902385 0.770551 0.024793
49 1 0.80096 0.677559 0.0433506
508 2 0.702294 0.628252 0.00465724
951 2 0.101969 0.987171 0.0706749
70 1 0.274343 0.715411 0.0384523
979 2 0.223032 0.902081 0.025392
20 1 0.0178652 0.909455 0.00675509
23 1 0.41707 0.720145 0.0204385
555 2 0.358757 0.859986 0.0429516
947 2 0.582464 0.741379 0.0246831
36 1 0.601499 0.911073 0.999211
516 2 0.428253 0.877718 0.000278943
37 1 0.75139 0.933077 0.00625315
61 1 0.750571 0.847541 0.0364695
597 2 0.880955 0.929121 0.0344646
581 2 0.0828026 0.12694 0.130502
577 2 0.935844 0.0747462 0.12967
559 2 0.950529 0.395876 0.0759794
548 2 0.400208 0.0229878 0.0330595
513 2 0.409049 0.0854375 0.074234
468 1 0.474104 0.963347 0.099186
982 2 0.558494 0.0930779 0.0892445
59 1 0.496453 0.994547 0.154908
525 2 0.679758 0.965341 0.0873083
554 2 0.697878 0.116409 0.0742685
566 2 0.711633 0.00428603 0.122191
528 2 0.764302 0.177088 0.101494
41 1 0.947165 0.175723 0.0902386
510 2 0.955057 0.517585 0.0592157
546 2 0.10018 0.306639 0.0838629
65 1 0.16197 0.719929 0.0662204
575 2 0.0257689 0.533692 0.0958766
57 1 0.170686 0.438069 0.103316
558 2 0.371296 0.221938 0.0983861
552 2 0.442012 0.36344 0.0793111
89 1 0.267429 0.339072 0.0827739
62 1 0.334448 0.515496 0.0877343
565 2 0.70229 0.360596 0.0901559
561 2 0.580476 0.252225 0.0759361
56 1 0.559755 0.426405 0.10504
576 2 0.53897 0.233434 0.118875
71 1 0.849189 0.257279 0.0694854
485 1 0.854558 0.496856 0.0915046
532 2 0.079914 0.866205 0.0428687
7 1 0.194432 0.794876 0.113058
594 2 0.0675216 0.690765 0.104167
985 2 0.153843 0.651385 0.133864
28 1 0.182084 0.587848 0.0955805
533 2 0.461785 0.629496 0.102826
538 2 0.311436 0.713343 0.11185
537 2 0.504285 0.801949 0.052752
521 2 0.645096 0.507663 0.0704988
545 2 0.608151 0.602998 0.099806
86 1 0.760209 0.630372 0.0980613
35 1 0.914781 0.656622 0.0785591
40 1 0.990821 0.792658 0.069497
542 2 0.221403 0.85146 0.0764559
98 1 0.154981 0.933745 0.131201
53 1 0.186373 0.042129 0.109617
44 1 0.0230618 0.0401206 0.101016
10 1 0.069904 0.859725 0.0960404
38 1 0.322002 0.972143 0.098504
547 2 0.502425 0.789854 0.107744
509 2 0.358804 0.778125 0.0749723
95 1 0.605048 0.919333 0.0356958
45 1 0.522572 0.93711 0.0669885
524 2 0.658162 0.838782 0.067245
21 1 0.571302 0.907185 0.128404
541 2 0.848369 0.0469956 0.101495
534 2 0.826345 0.791101 0.0791834
39 1 0.912735 0.927683 0.081232
550 2 0.781296 0.867535 0.110392
599 2 0.15239 0.0627221 0.160778
539 2 0.0835446 0.282493 0.133393
120 1 0.0171675 0.194253 0.163865
543 2 0.271882 0.236514 0.173713
587 2 0.261019 0.143874 0.14222
671 2 0.375591 0.106621 0.169542
99 1 0.397532 0.123278 0.127384
60 1 0.595718 0.102568 0.134964
54 1 0.905312 0.0757025 0.170543
486 1 0.788816 0.138504 0.140798
530 2 0.797407 0.172276 0.18186
589 2 0.222454 0.258932 0.114931
638 2 0.0547949 0.508242 0.13018
82 1 0.216212 0.507805 0.144504
76 1 0.117318 0.354294 0.171794
105 1 0.402242 0.272186 0.149894
595 2 0.263059 0.176461 0.0792273
50 1 0.355985 0.400209 0.120196
556 2 0.449722 0.434951 0.150926
590 2 0.674742 0.265268 0.129731
557 2 0.542814 0.318825 0.155817
64 1 0.641773 0.440572 0.150744
42 1 0.808021 0.323343 0.112588
93 1 0.876476 0.421648 0.139366
109 1 0.975408 0.366463 0.112863
1 1 0.891379 0.314865 0.174196
544 2 0.0810306 0.57435 0.163567
125 1 0.347355 0.540933 0.179179
107 1 0.0476998 0.806272 0.129538
11 1 0.289932 0.781055 0.155839
78 1 0.338484 0.587172 0.138906
519 2 0.54243 0.538508 0.130909
116 1 0.445481 0.693265 0.136239
593 2 0.395659 0.685434 0.178358
998 2 0.640534 0.547922 0.18812
604 2 0.670572 0.777782 0.101144
502 2 0.512971 0.611903 0.200283
77 1 0.909601 0.590746 0.121968
981 2 0.721528 0.489716 0.113926
636 2 0.928354 0.523883 0.162427
80 1 0.728219 0.602051 0.143815
83 1 0.83636 0.650815 0.171557
104 1 0.89345 0.733799 0.111951
963 2 0.0207645 0.966591 0.147076
141 1 0.989007 0.688796 0.144136
97 1 0.135873 0.755698 0.163939
551 2 0.335574 0.85536 0.121959
72 1 0.326038 0.975019 0.147315
570 2 0.53155 0.788363 0.188296
117 1 0.662576 0.00781051 0.160595
598 2 0.60325 0.708349 0.144341
14 1 0.770235 0.747694 0.1386
971 2 0.462325 0.831928 0.151865
540 2 0.62084 0.860257 0.161105
118 1 0.825794 0.947018 0.145659
88 1 0.920665 0.92132 0.117666
517 2 0.911789 0.827166 0.145658
112 1 0.246861 0.0687392 0.191749
569 2 0.910788 0.256415 0.137231
603 2 0.115778 0.0876238 0.241499
127 1 0.0396064 0.123476 0.212206
101 1 0.393998 0.222068 0.192522
607 2 0.437484 0.0435739 0.213276
90 1 0.512999 0.164585 0.163284
626 2 0.600345 0.947039 0.230543
161 1 0.678154 0.0400911 0.208276
583 2 0.699678 0.21087 0.210634
102 1 0.788773 0.962653 0.187968
580 2 0.97349 0.225625 0.238395
957 2 0.00416394 0.277992 0.198033
585 2 0.194785 0.433968 0.198908
611 2 0.172232 0.25253 0.203412
608 2 0.143539 0.355264 0.235444
535 2 0.261742 0.381753 0.158408
609 2 0.348481 0.379649 0.19483
653 2 0.562079 0.109029 0.230197
100 1 0.666265 0.38643 0.205929
670 2 0.550365 0.285688 0.205073
592 2 0.580477 0.138805 0.195402
157 1 0.640936 0.236081 0.174446
84 1 0.442777 0.401725 0.227301
26 1 0.860225 0.256845 0.212549
567 2 0.97418 0.405521 0.225318
621 2 0.846668 0.400947 0.203007
564 2 0.768374 0.296984 0.160339
87 1 0.0284802 0.457169 0.187245
144 1 0.22964 0.61646 0.170797
606 2 0.110769 0.614339 0.198152
121 1 0.166261 0.57026 0.245087
647 2 0.520835 0.433819 0.185574
91 1 0.494983 0.588167 0.164309
665 2 0.258292 0.596273 0.214539
651 2 0.287387 0.438126 0.233688
115 1 0.530802 0.655603 0.243445
150 1 0.786856 0.490517 0.16483
619 2 0.657625 0.675628 0.213614
113 1 0.694669 0.703332 0.177542
55 1 0.577108 0.476226 0.233923
169 1 0.97179 0.742142 0.179308
642 2 0.953163 0.605648 0.204944
632 2 0.812682 0.626964 0.211642
74 1 0.182706 0.910701 0.172898
122 1 0.113042 0.984215 0.202905
616 2 0.099131 0.831435 0.201516
613 2 0.0193248 0.908685 0.233851
68 1 0.40732 0.923827 0.181629
591 2 0.244063 0.72973 0.234803
562 2 0.298783 0.87254 0.207821
66 1 0.204977 0.723811 0.196685
149 1 0.407835 0.716997 0.220198
536 2 0.455053 0.891699 0.229424
586 2 0.553436 0.945045 0.186461
531 2 0.772318 0.753159 0.238331
131 1 0.661417 0.838923 0.208811
605 2 0.749255 0.897894 0.242587
553 2 0.945452 0.912544 0.180347
108 1 0.789535 0.830067 0.170156
578 2 0.920608 0.0225153 0.212487
628 2 0.908265 0.0951807 0.252486
615 2 0.843001 0.862592 0.215786
596 2 0.942157 0.755378 0.215924
111 1 0.929794 0.783246 0.262118
667 2 0.0465871 0.172658 0.273523
140 1 0.262697 0.123548 0.267558
176 1 0.0196371 0.00136116 0.270996
572 2 0.287526 0.190375 0.224826
579 2 0.301674 0.0115447 0.226044
151 1 0.36088 0.0930974 0.291017
110 1 0.689097 0.150346 0.256879
623 2 0.515199 0.096661 0.271959
183 1 0.400863 0.146528 0.249503
601 2 0.944284 0.0691095 0.303908
630 2 0.799153 0.107544 0.224214
123 1 0.930884 0.363948 0.299437
719 2 0.817446 0.0162005 0.27834
699 2 0.765817 0.19331 0.302742
582 2 0.0406668 0.328784 0.268982
610 2 0.19126 0.240294 0.257686
649 2 0.0876109 0.396459 0.30494
166 1 0.21005 0.38613 0.270248
640 2 0.329788 0.245905 0.283479
164 1 0.378386 0.283419 0.247143
129 1 0.704281 0.304007 0.241864
612 2 0.506207 0.413603 0.293607
627 2 0.529667 0.245832 0.258448
691 2 0.692649 0.498209 0.263844
135 1 0.889304 0.22472 0.274874
130 1 0.859921 0.365444 0.251107
160 1 0.762261 0.367141 0.285255
664 2 0.989637 0.523801 0.304932
634 2 0.262133 0.533045 0.28824
145 1 0.118768 0.531858 0.279672
247 1 0.0632955 0.682575 0.232986
142 1 0.250053 0.808384 0.289788
672 2 0.348424 0.649124 0.26015
635 2 0.395492 0.542219 0.213154
148 1 0.417147 0.522412 0.252501
624 2 0.324404 0.560121 0.323158
103 1 0.504532 0.746609 0.27684
637 2 0.633792 0.651444 0.293979
617 2 0.550622 0.540712 0.269557
155 1 0.673607 0.649852 0.252861
622 2 0.759975 0.497272 0.229186
675 2 0.994054 0.630912 0.273253
568 2 0.979493 0.476033 0.264811
152 1 0.885485 0.619786 0.245496
563 2 0.111379 0.791409 0.267184
128 1 0.178957 0.889448 0.2321
134 1 0.376967 0.807167 0.25487
201 1 0.419292 0.970489 0.266559
658 2 0.380693 0.903989 0.310188
69 1 0.566854 0.796887 0.239829
147 1 0.629374 0.985263 0.26598
655 2 0.645051 0.823631 0.271476
231 1 0.963904 0.740683 0.306644
94 1 0.900781 0.921397 0.257411
648 2 0.818064 0.704256 0.281784
652 2 0.0494075 0.163003 0.319933
690 2 0.165967 0.0984755 0.349405
185 1 0.153138 0.0642864 0.285429
618 2 0.134179 0.257144 0.297499
602 2 0.230491 0.151578 0.3113
686 2 0.506027 0.137042 0.342847
687 2 0.296578 0.310012 0.344396
679 2 0.623966 0.129626 0.298303
238 1 0.504266 0.0253394 0.311821
202 1 0.663847 0.214305 0.328272
172 1 0.806275 0.0744099 0.324956
211 1 0.894166 0.197434 0.326609
639 2 0.0598945 0.458528 0.347394
137 1 0.246472 0.357328 0.313049
620 2 0.215418 0.453283 0.343228
106 1 0.122813 0.275607 0.336818
119 1 0.362854 0.401689 0.272669
138 1 0.508429 0.256508 0.300733
126 1 0.529404 0.351177 0.334158
656 2 0.362175 0.195139 0.31942
189 1 0.639463 0.368473 0.308987
67 1 0.60009 0.265129 0.364689
114 1 0.649207 0.259575 0.281279
650 2 0.645099 0.537104 0.330604
179 1 0.978635 0.326367 0.333392
133 1 0.808048 0.327756 0.319907
629 2 0.789746 0.246109 0.35034
194 1 0.761586 0.466976 0.311856
697 2 0.122225 0.693933 0.295335
153 1 0.975857 0.852423 0.33875
207 1 0.242726 0.62092 0.35482
178 1 0.948502 0.635232 0.334932
195 1 0.425117 0.563326 0.287596
168 1 0.385822 0.406639 0.318986
163 1 0.366535 0.724634 0.300992
154 1 0.78379 0.64932 0.338254
146 1 0.498117 0.546767 0.319699
703 2 0.558951 0.714865 0.328159
641 2 0.847536 0.51321 0.271495
170 1 0.911966 0.480911 0.339501
175 1 0.837246 0.593107 0.305452
614 2 0.084735 0.848363 0.308667
680 2 0.0798545 0.00914781 0.324022
197 1 0.226386 0.923598 0.324761
177 1 0.268048 0.957727 0.28588
221 1 0.277812 0.767527 0.332552
696 2 0.422372 0.797163 0.336106
224 1 0.318518 0.0266076 0.342484
124 1 0.547798 0.904274 0.292895
198 1 0.701531 0.762004 0.315988
724 2 0.679987 0.983569 0.302153
631 2 0.473576 0.964759 0.346303
81 1 0.815888 0.858811 0.286143
625 2 0.946904 0.909634 0.299652
673 2 0.648629 0.0319125 0.343863
662 2 0.977596 0.0585872 0.345834
588 2 0.826673 0.933304 0.326573
181 1 0.269828 0.147736 0.408884
240 1 0.159161 0.207808 0.37587
660 2 0.253392 0.0521688 0.375917
321 1 0.154228 0.0712473 0.417112
236 1 0.312988 0.166748 0.357211
136 1 0.507514 0.932017 0.403777
678 2 0.456263 0.176837 0.399633
257 1 0.444774 0.072433 0.374132
190 1 0.605208 0.0510061 0.39631
187 1 0.757322 0.111419 0.402871
698 2 0.763717 0.0111687 0.366865
706 2 0.684624 0.920182 0.401516
716 2 0.698967 0.366867 0.351926
749 2 0.705365 0.151439 0.367667
715 2 0.0961834 0.992174 0.3829
709 2 0.861085 0.124458 0.368677
720 2 0.239489 0.492153 0.385935
180 1 0.026166 0.20883 0.356348
584 2 0.165325 0.261616 0.417145
710 2 0.0888758 0.345359 0.380644
643 2 0.450124 0.264479 0.362545
677 2 0.261601 0.326758 0.380899
188 1 0.54635 0.345978 0.39534
661 2 0.415152 0.463311 0.349447
714 2 0.393861 0.306361 0.398144
657 2 0.576238 0.440148 0.360789
162 1 0.700429 0.227048 0.41847
669 2 0.462129 0.461072 0.389084
237 1 0.764115 0.494953 0.354312
666 2 0.707646 0.452996 0.384372
165 1 0.937808 0.319259 0.396637
644 2 0.856162 0.389858 0.371862
682 2 0.120984 0.564101 0.322725
700 2 0.0384482 0.719965 0.362104
712 2 0.149664 0.700275 0.393026
156 1 0.09507 0.591409 0.37233
725 2 0.370588 0.578739 0.386241
717 2 0.440974 0.642101 0.348453
645 2 0.662226 0.747732 0.359902
143 1 0.540802 0.616429 0.373729
779 2 0.665682 0.574675 0.412097
158 1 0.848315 0.603233 0.37383
674 2 0.694591 0.60305 0.374041
191 1 0.828759 0.518549 0.408667
159 1 0.131172 0.72217 0.335953
705 2 0.1158 0.897748 0.35352
681 2 0.238914 0.947267 0.43192
225 1 0.23002 0.891065 0.381013
205 1 0.143673 0.839302 0.41574
212 1 0.314975 0.755624 0.37242
646 2 0.375357 0.916649 0.374064
741 2 0.449364 0.729414 0.391282
199 1 0.34003 0.695176 0.423247
633 2 0.55438 0.848833 0.376373
209 1 0.614671 0.875038 0.341082
676 2 0.846984 0.783744 0.335469
173 1 0.761106 0.850952 0.361405
251 1 0.948207 0.89608 0.372746
184 1 -0.000913097 0.238866 0.430813
772 2 0.00525305 0.894323 0.431592
792 2 0.115076 0.0101387 0.460023
791 2 0.296448 0.0859554 0.442881
713 2 0.326681 0.286697 0.432495
233 1 0.431404 0.149474 0.443929
213 1 0.445086 0.973279 0.439678
182 1 0.56597 0.0787759 0.429948
738 2 0.687427 0.116356 0.455525
702 2 0.716455 0.865068 0.441584
734 2 0.77409 0.0152247 0.434284
689 2 0.896561 0.0032774 0.402278
193 1 0.874983 0.138726 0.425343
659 2 0.000751498 0.137929 0.391791
261 1 0.0965648 0.523812 0.45711
239 1 0.0326073 0.388276 0.429087
203 1 0.161823 0.488323 0.414717
688 2 0.350025 0.451865 0.413552
265 1 0.356854 0.392281 0.46544
736 2 0.153654 0.369506 0.452554
216 1 0.455794 0.380605 0.434653
132 1 0.5523 0.473111 0.422604
218 1 0.621844 0.367719 0.455873
300 1 0.664829 0.369152 0.416875
692 2 0.792347 0.281038 0.390143
234 1 0.87108 0.341472 0.4349
217 1 0.959952 0.498947 0.384019
196 1 0.263052 0.570544 0.431195
222 1 0.233338 0.487969 0.468873
737 2 0.979619 0.539625 0.425548
701 2 0.0175721 0.633062 0.472478
726 2 0.151943 0.688002 0.464355
220 1 0.506009 0.612295 0.428179
167 1 0.38474 0.528922 0.449654
227 1 0.442848 0.675519 0.456658
171 1 0.646549 0.709189 0.432784
255 1 0.566851 0.603446 0.4636
206 1 0.778436 0.679738 0.401508
685 2 0.762969 0.446921 0.444565
723 2 0.924422 0.484737 0.461678
246 1 0.869386 0.752316 0.378463
200 1 0.125527 0.632409 0.428177
746 2 0.0793959 0.846675 0.467193
755 2 0.991176 0.748334 0.450606
223 1 0.469057 0.792341 0.427616
296 1 0.255337 0.81357 0.444473
708 2 0.346088 0.987598 0.409686
174 1 0.291811 0.967119 0.470859
208 1 0.581262 0.92861 0.444067
727 2 0.618774 0.787544 0.465218
733 2 0.65452 0.778215 0.400567
264 1 0.666407 0.984478 0.47198
654 2 0.0199052 0.79046 0.398554
693 2 0.853788 0.639152 0.43465
232 1 0.856801 0.83326 0.412202
229 1 0.831182 0.785821 0.448532
684 2 0.925796 0.946674 0.463398
763 2 0.0168276 0.0717313 0.435578
272 1 0.137166 0.120113 0.508102
259 1 0.238364 0.256866 0.499206
742 2 0.43568 0.100251 0.498717
269 1 0.276957 0.0873006 0.489029
219 1 0.540949 0.0744901 0.468179
285 1 0.256762 0.238314 0.462361
728 2 0.265982 0.164511 0.533142
366 1 0.430279 0.259748 0.482666
718 2 0.778952 0.253263 0.449986
289 1 0.696131 0.230212 0.48921
260 1 0.549573 0.256391 0.429545
778 2 0.552245 0.224982 0.515567
683 2 0.817172 0.124829 0.494762
711 2 0.0168844 0.021216 0.490303
704 2 0.905158 0.187987 0.468318
242 1 0.0964308 0.2145 0.479626
745 2 0.137013 0.381292 0.4971
215 1 0.0881748 0.275704 0.52366
732 2 0.11366 0.494034 0.527956
258 1 0.294987 0.402977 0.504961
721 2 0.56818 0.221023 0.470818
695 2 0.367897 0.507683 0.490658
748 2 0.350305 0.577231 0.521577
308 1 0.614508 0.382001 0.494814
249 1 0.466251 0.396342 0.515374
823 2 0.585426 0.496445 0.535592
767 2 0.991181 0.335074 0.466863
275 1 0.771697 0.44476 0.511508
740 2 0.968283 0.366333 0.507314
759 2 0.749512 0.303799 0.518782
739 2 0.811427 0.368646 0.4766
186 1 0.0049301 0.518333 0.494615
785 2 -0.000171634 0.669751 0.520293
735 2 0.256617 0.77368 0.482501
762 2 0.29884 0.638901 0.472696
766 2 0.42 0.695653 0.492514
278 1 0.162828 0.570256 0.496004
753 2 0.730695 0.666126 0.461499
204 1 0.519648 0.544578 0.499874
314 1 0.696813 0.63217 0.528232
754 2 0.689625 0.504478 0.475921
214 1 0.658942 0.646477 0.493586
722 2 0.845042 0.578318 0.485902
230 1 0.955043 0.532316 0.53833
309 1 0.853225 0.669436 0.532029
744 2 0.776678 0.543304 0.554197
284 1 0.00610175 0.875773 0.500724
250 1 0.128475 0.748764 0.508779
747 2 0.173065 0.941005 0.492221
780 2 0.107024 0.816012 0.551751
707 2 0.409144 0.849926 0.459532
287 1 0.358314 0.970592 0.514784
210 1 0.532789 0.791685 0.49868
235 1 0.650809 0.105896 0.506133
668 2 0.796638 0.740244 0.492349
824 2 0.638426 0.89028 0.503737
731 2 0.600942 0.762814 0.531694
279 1 0.490706 0.931243 0.483153
774 2 0.938881 0.752163 0.488246
282 1 0.863066 0.933372 0.50901
663 2 0.921834 0.73821 0.560005
865 2 0.741351 0.837545 0.527064
281 1 0.20403 0.250018 0.583816
764 2 0.0657063 0.228144 0.558665
243 1 0.090448 0.0714376 0.568623
263 1 0.380363 0.265311 0.560648
357 1 0.236247 0.356706 0.537205
299 1 0.531085 0.221071 0.554691
348 1 0.397123 0.116197 0.548975
809 2 0.752471 0.167655 0.531268
274 1 0.63993 0.101718 0.565895
798 2 0.533658 0.0825546 0.531076
758 2 0.486166 0.00899064 0.573838
804 2 0.893962 0.229906 0.511297
757 2 0.0114105 0.139529 0.526376
729 2 0.0207298 0.380744 0.545526
277 1 0.898408 0.234025 0.550405
320 1 0.710673 0.249885 0.568162
781 2 0.11148 0.360719 0.574727
295 1 0.895269 0.601976 0.576036
228 1 0.387609 0.259054 0.52351
811 2 0.232772 0.487156 0.550696
341 1 0.321138 0.405325 0.578988
254 1 0.615806 0.306282 0.600486
270 1 0.628217 0.336708 0.540197
761 2 0.695532 0.401447 0.572183
694 2 0.428046 0.468122 0.55767
765 2 0.86867 0.410818 0.568478
795 2 0.761645 0.434776 0.609919
776 2 0.892377 0.552226 0.61976
315 1 0.137003 0.637207 0.539421
298 1 0.00874284 0.728099 0.606412
283 1 0.298542 0.599217 0.577942
775 2 0.220972 0.712482 0.592996
192 1 0.134617 0.851979 0.606168
267 1 0.272554 0.708759 0.524076
322 1 0.49416 0.668729 0.527487
288 1 0.492282 0.79482 0.56303
350 1 0.479327 0.644232 0.569417
245 1 0.757732 0.737948 0.557174
750 2 0.617153 0.55456 0.57205
790 2 0.765204 0.588786 0.59496
793 2 0.00498544 0.844638 0.579775
262 1 0.848411 0.883779 0.561044
244 1 0.0683417 0.659223 0.574989
290 1 0.109192 0.989651 0.5301
256 1 0.230944 0.868368 0.533093
751 2 0.257784 0.113375 0.571631
822 2 0.969158 0.933296 0.548079
310 1 0.261321 0.0068264 0.537512
752 2 0.419027 0.798452 0.524755
266 1 0.519634 0.919351 0.532346
832 2 0.381103 0.882481 0.551827
273 1 0.630369 0.710546 0.57533
372 1 0.6496 0.94485 0.557472
783 2 0.7282 0.853315 0.584745
291 1 0.723438 0.00904464 0.528259
770 2 0.882511 0.805101 0.526431
306 1 0.802873 0.0291475 0.571838
789 2 0.875749 0.0805124 0.536547
799 2 0.16923 0.123404 0.604423
871 2 0.145767 0.296333 0.616572
803 2 0.272237 0.0493194 0.633852
788 2 0.0913317 0.109585 0.640093
349 1 0.32063 0.294641 0.605999
319 1 0.385538 0.114069 0.592803
292 1 0.234265 0.206106 0.636363
276 1 0.417496 0.151707 0.634393
782 2 0.48016 0.338075 0.579604
794 2 0.537926 0.153432 0.588057
335 1 0.666602 0.149842 0.61671
268 1 0.789422 0.169942 0.592065
304 1 0.0326617 0.240428 0.594496
817 2 0.919906 0.175733 0.616452
294 1 0.0371684 0.402744 0.605617
825 2 0.24758 0.396537 0.629398
814 2 0.177187 0.462242 0.593838
829 2 0.107876 0.592816 0.611197
303 1 0.106383 0.44711 0.636996
241 1 0.408668 0.540192 0.598587
253 1 0.422363 0.393736 0.62256
376 1 0.527736 0.164239 0.663663
769 2 0.524115 0.462525 0.597609
311 1 0.773334 0.274083 0.618022
340 1 0.781421 0.355365 0.648247
328 1 0.48354 0.261178 0.616606
845 2 0.0327467 0.280254 0.642847
313 1 0.894936 0.294279 0.593954
271 1 0.918268 0.375659 0.625153
302 1 0.0746285 0.511046 0.56491
368 1 0.286128 0.593404 0.618428
860 2 0.415082 0.750895 0.592327
815 2 0.530214 0.508854 0.643419
293 1 0.624341 0.389019 0.630368
226 1 0.567659 0.6363 0.613367
826 2 0.689446 0.737985 0.615789
808 2 0.703602 0.749829 0.651492
813 2 0.696406 0.575745 0.6294
840 2 0.842139 0.566934 0.656818
843 2 0.813712 0.725363 0.592515
797 2 0.829065 0.70289 0.632165
280 1 0.0280021 0.962449 0.609552
796 2 0.177528 0.663053 0.643351
864 2 0.0193231 0.830019 0.633807
760 2 0.278487 0.663901 0.678088
777 2 0.291906 0.793792 0.614893
743 2 0.313397 0.735518 0.558297
343 1 0.368888 0.93866 0.604317
818 2 0.159015 0.938208 0.57167
374 1 0.497425 0.946889 0.622109
325 1 0.579468 0.8806 0.593474
297 1 0.673198 0.889832 0.624782
849 2 0.543282 0.779035 0.621678
730 2 0.888791 0.873695 0.601157
286 1 0.958982 0.102716 0.585478
326 1 0.859126 0.029525 0.606274
784 2 0.935141 0.0144327 0.645466
301 1 0.846296 0.874869 0.640395
802 2 0.241414 0.345327 0.670076
863 2 0.222351 0.146719 0.668861
345 1 0.112099 0.267414 0.683793
771 2 0.221189 0.164183 0.716495
346 1 0.193504 0.950057 0.704508
787 2 0.37392 0.114749 0.687727
900 2 0.253798 0.977977 0.665014
801 2 0.598026 0.226778 0.696081
812 2 0.676075 0.102973 0.673657
333 1 0.572325 0.0515783 0.639309
365 1 0.77666 0.0765404 0.63805
443 1 0.632429 0.927194 0.696564
331 1 0.994178 0.124407 0.683238
807 2 0.0907271 1.00063 0.669689
827 2 0.873435 0.214109 0.653304
838 2 0.399432 0.423223 0.662923
821 2 0.268792 0.338915 0.711579
334 1 0.0657051 0.410823 0.675678
891 2 0.361833 0.262477 0.659009
896 2 0.456825 0.300691 0.690957
364 1 0.503717 0.333464 0.653682
768 2 0.521909 0.492728 0.731007
862 2 0.627618 0.357991 0.675286
248 1 0.663241 0.237643 0.649915
773 2 0.769308 0.280255 0.681005
370 1 0.927782 0.29935 0.684587
397 1 0.841894 0.118748 0.682916
850 2 0.990049 0.63502 0.645047
836 2 0.0558854 0.547994 0.67751
355 1 0.142132 0.653266 0.701848
424 1 0.204708 0.468395 0.690615
842 2 0.26916 0.524451 0.650461
831 2 0.5839 0.639334 0.657857
362 1 0.376096 0.430265 0.704082
756 2 0.403701 0.577337 0.663199
317 1 0.501436 0.645888 0.689363
324 1 0.693522 0.523512 0.673465
872 2 0.776649 0.458707 0.698257
847 2 0.519276 0.486252 0.695467
360 1 0.662577 0.614761 0.705986
886 2 0.623226 0.756821 0.699162
873 2 0.882891 0.422878 0.667256
379 1 0.0881719 0.714381 0.669764
358 1 0.769708 0.674844 0.676966
800 2 0.160016 0.894665 0.640831
867 2 0.231495 0.800539 0.70617
252 1 0.134213 0.849354 0.679341
846 2 0.0497312 0.938578 0.722637
819 2 0.431717 0.728905 0.64593
874 2 0.246037 0.799274 0.656781
316 1 0.499437 0.849624 0.702014
327 1 0.379099 0.876197 0.644941
869 2 0.366732 0.788706 0.689535
353 1 0.658814 0.0217753 0.596755
342 1 0.791587 0.855396 0.684143
909 2 0.546573 0.814136 0.667315
305 1 0.677167 0.921512 0.660942
332 1 0.89126 0.751005 0.665284
810 2 0.816661 0.981498 0.664096
854 2 0.967489 0.879311 0.671099
930 2 0.0524831 0.0788038 0.716973
359 1 0.192842 0.111993 0.751022
377 1 0.872876 0.0844765 0.725132
830 2 0.989147 0.225833 0.718563
416 1 0.291352 0.0432794 0.719459
880 2 0.465719 0.0829216 0.770312
323 1 0.609534 0.98402 0.738544
851 2 0.504649 0.0331237 0.687536
859 2 0.685702 0.0878405 0.715213
375 1 0.518731 0.108426 0.736372
449 1 0.644718 0.108147 0.764804
361 1 0.948495 0.988723 0.695238
853 2 0.803334 0.999125 0.704359
861 2 0.12227 0.259016 0.741917
386 1 0.923677 0.410626 0.710083
387 1 0.977915 0.341847 0.749184
338 1 0.272868 0.309584 0.74978
835 2 0.17568 0.424179 0.770288
858 2 0.258667 0.466517 0.728368
901 2 0.431287 0.387989 0.752051
312 1 0.48509 0.251207 0.726819
834 2 0.693841 0.266397 0.756286
390 1 0.808714 0.210416 0.711198
844 2 0.64032 0.346159 0.720724
935 2 0.586722 0.380154 0.759735
816 2 0.85098 0.276328 0.764946
422 1 0.798566 0.354146 0.730412
430 1 0.690191 0.480671 0.74202
848 2 0.114469 0.378842 0.711804
839 2 0.0199537 0.54142 0.716704
855 2 0.0385636 0.50022 0.753962
384 1 0.175957 0.564816 0.754401
942 2 0.0949468 0.661495 0.793821
892 2 0.0323928 0.663955 0.753029
820 2 0.308473 0.614589 0.719221
877 2 0.297766 0.664871 0.75759
367 1 0.538345 0.643537 0.733774
898 2 0.796904 0.747858 0.711076
396 1 0.592907 0.81581 0.73239
389 1 0.946194 0.689213 0.698352
875 2 0.90354 0.636711 0.733656
423 1 0.87109 0.565436 0.695463
870 2 0.951062 0.598203 0.777615
473 1 0.183087 0.736487 0.743078
852 2 0.23393 0.901154 0.74035
398 1 0.0524106 0.792424 0.712893
352 1 0.0356216 0.0429016 0.752805
420 1 0.334323 0.862882 0.775229
347 1 0.431609 0.756344 0.727864
318 1 0.358271 0.934488 0.697431
837 2 0.75563 0.969202 0.759829
339 1 0.749867 0.876572 0.730011
897 2 0.696126 0.642361 0.747092
337 1 0.910057 0.860829 0.714425
330 1 0.988127 0.817704 0.748068
411 1 0.0912837 0.834127 0.773933
882 2 0.901513 0.947099 0.744631
382 1 0.819532 0.775314 0.752189
921 2 0.0536131 0.0948643 0.787555
895 2 0.0106428 0.217432 0.765872
954 2 0.168439 0.127639 0.808095
497 1 0.953838 0.228843 0.804595
828 2 0.526051 0.211684 0.769141
407 1 0.292605 0.143366 0.785255
373 1 0.477802 0.974611 0.800483
363 1 0.317719 0.0200271 0.760491
786 2 0.309752 0.121928 0.832416
884 2 0.680305 0.19177 0.84553
481 1 0.625016 0.11675 0.801383
356 1 0.893045 0.0770014 0.776845
460 1 0.799474 0.152352 0.800638
806 2 0.839911 0.353413 0.808422
990 2 0.206484 0.285835 0.790144
441 1 0.0781247 0.516269 0.790854
984 2 0.198761 0.409378 0.814804
429 1 0.366944 0.280179 0.78157
408 1 0.345167 0.160199 0.740396
378 1 0.376799 0.469044 0.786748
889 2 0.642843 0.272435 0.794963
380 1 0.780416 0.140272 0.748952
329 1 0.649964 0.441681 0.798176
405 1 0.496755 0.35806 0.794045
434 1 0.534019 0.236144 0.819057
410 1 0.748213 0.381802 0.772155
413 1 0.908645 0.45573 0.783704
893 2 0.857775 0.495913 0.747815
964 2 0.0493934 0.356319 0.78409
805 2 0.186403 0.611555 0.829475
879 2 0.228209 0.719395 0.786703
972 2 0.9499 0.610638 0.816998
905 2 0.0509169 0.622801 0.852997
881 2 0.233571 0.549183 0.797922
841 2 0.36463 0.633826 0.795114
910 2 0.404101 0.552011 0.752902
915 2 0.482759 0.716275 0.765922
391 1 0.567827 0.538878 0.763527
381 1 0.640778 0.603205 0.821088
400 1 0.624859 0.671158 0.788517
393 1 0.791669 0.536432 0.816898
404 1 0.834771 0.695045 0.797473
414 1 0.752793 0.553732 0.782216
351 1 0.953488 0.732962 0.846701
425 1 0.128119 0.963647 0.814898
344 1 0.0861018 0.762902 0.825826
406 1 0.148388 0.983717 0.771845
412 1 0.3292 0.980346 0.801062
924 2 0.426265 0.958975 0.731743
941 2 0.394791 0.784698 0.803044
383 1 0.551805 0.825506 0.795955
307 1 0.664019 0.802071 0.766981
385 1 0.821601 0.867566 0.790067
833 2 0.485201 0.913143 0.765423
354 1 0.691773 0.963041 0.802506
899 2 0.959699 0.930663 0.782853
392 1 0.983682 0.767277 0.794898
457 1 0.0890774 0.309027 0.817866
956 2 0.989013 0.184349 0.854069
483 1 0.0238302 0.0870168 0.828469
968 2 0.975181 0.294677 0.88482
428 1 0.0536689 0.0537904 0.869107
462 1 0.410126 0.00203302 0.834482
928 2 0.328937 0.291459 0.827631
452 1 0.452059 0.190938 0.850981
336 1 0.544037 0.0899612 0.830633
866 2 0.182932 0.127199 0.848708
937 2 0.350304 0.0568169 0.869515
868 2 0.841023 0.23022 0.837383
887 2 0.55872 0.130464 0.871459
450 1 0.657032 0.263526 0.877511
938 2 0.783436 0.0830705 0.844358
976 2 0.960106 0.334345 0.847962
953 2 0.82985 0.277765 0.875301
30 1 0.873143 0.129088 0.879444
916 2 0.128085 0.488631 0.847292
934 2 0.154261 0.295371 0.852055
476 1 0.101603 0.389542 0.881086
388 1 0.316506 0.52458 0.832417
857 2 0.43659 0.419518 0.83048
418 1 0.311285 0.497278 0.889462
501 2 0.265689 0.417633 0.857179
32 1 0.458838 0.48289 0.872634
949 2 0.515365 0.326768 0.864402
417 1 0.650521 0.322305 0.835916
960 2 0.677368 0.409926 0.869982
876 2 0.817755 0.394156 0.851547
435 1 0.988723 0.452512 0.815784
996 2 0.971539 0.477311 0.868022
912 2 0.202419 0.740719 0.857664
426 1 0.170672 0.590179 0.878567
431 1 0.026674 0.574912 0.893541
470 1 0.881756 0.688466 0.906736
944 2 0.0434135 0.761669 0.875189
883 2 0.495819 0.528552 0.801973
932 2 0.461133 0.608414 0.851486
878 2 0.330407 0.623117 0.863081
913 2 0.48255 0.62746 0.890679
894 2 0.322896 0.715169 0.833511
933 2 0.762266 0.545559 0.855144
919 2 0.572807 0.463855 0.831827
395 1 0.604382 0.691303 0.85171
856 2 0.804328 0.700728 0.835444
955 2 0.774169 0.56383 0.900522
966 2 0.92143 0.623956 0.872981
415 1 0.765912 0.69067 0.873735
22 1 0.214566 0.831939 0.815359
890 2 0.170345 0.73803 0.901804
453 1 0.0571735 0.902739 0.855979
911 2 0.958142 0.868629 0.825573
940 2 0.355523 0.802142 0.862834
401 1 0.255079 0.9379 0.837677
439 1 0.206676 0.8791 0.873937
925 2 0.569187 0.925293 0.827677
920 2 0.678476 0.776865 0.824019
369 1 0.665516 0.989906 0.85212
445 1 0.492355 0.955203 0.864525
917 2 0.494154 0.670082 0.814149
469 1 0.467371 0.823308 0.836856
421 1 0.849191 0.0110319 0.81004
922 2 0.903377 0.991022 0.856417
461 1 0.888217 0.822451 0.873592
394 1 0.789246 0.88332 0.84062
451 1 0.220094 0.301308 0.898549
970 2 0.105088 0.201234 0.888973
463 1 0.459708 0.217586 0.890844
474 1 0.484188 0.32077 0.937076
923 2 0.310447 0.0980713 0.912428
399 1 0.460562 0.0627615 0.899008
904 2 0.719955 0.112615 0.874316
950 2 0.639397 0.155627 0.909413
515 2 0.626988 0.261935 0.941173
5 1 0.627085 0.984613 0.901924
427 1 0.795855 0.0695281 0.915267
442 1 0.975907 0.0811462 0.916574
419 1 0.99427 0.433124 0.908882
988 2 0.218243 0.465601 0.918333
403 1 0.313458 0.207025 0.871615
446 1 0.377232 0.3557 0.899159
505 2 0.374559 0.266064 0.967397
493 1 0.567386 0.331962 0.908914