ITEM: TIMESTEP
1090
ITEM: NUMBER OF ATOMS
1000
ITEM: BOX BOUNDS pp pp pp
0.0000000000000000e+00 6.2996052494743662e+00
0.0000000000000000e+00 6.2996052494743662e+00
0.0000000000000000e+00 2.5198420997897465e+01
ITEM: ATOMS id type xs ys zs
1 1 0.0804604 0.0731034 0.0253562
501 2 0.20409 0.20263 0.0375929
502 2 0.23739 0.086351 0.0100032
521 2 0.211735 0.0298413 0.0549028
976 2 0.00934273 0.238494 0.0118841
8 1 0.346126 0.158996 0.0311004
9 1 0.515903 0.0574247 0.00460713
503 2 0.635037 0.0877568 0.0444838
10 1 0.609617 0.186332 0.0120529
508 2 0.649475 0.263726 0.0487828
979 2 0.681287 0.0354324 0.997425
6 1 0.910951 0.0769823 0.012794
504 2 0.777604 0.0223425 0.0268601
505 2 0.917714 0.104642 0.0544626
509 2 0.806385 0.19264 0.0387803
12 1 0.213039 0.377794 0.00502547
981 2 0.0468049 0.384656 0.0194884
7 1 0.352496 0.347172 0.0390273
507 2 0.243163 0.508533 0.0243554
14 1 0.488458 0.274479 0.029156
13 1 0.489253 0.426257 0.0221907
514 2 0.628054 0.378969 0.0239125
15 1 0.779294 0.388796 0.0143331
40 1 0.740997 0.393292 0.0495972
510 2 0.898564 0.335859 0.0400638
511 2 0.0887871 0.555886 0.0297686
516 2 0.150967 0.693265 0.02189
512 2 0.412067 0.49837 0.0499851
517 2 0.332669 0.641631 0.0332656
518 2 0.524189 0.579778 0.0296034
519 2 0.690355 0.570577 0.0390518
24 1 0.60132 0.724004 0.00365346
16 1 0.959917 0.661041 0.0185564
20 1 0.776698 0.608443 0.00957894
45 1 0.821357 0.635591 0.0472846
515 2 0.898204 0.490408 0.0259852
2 1 0.246736 0.94134 0.0231227
21 1 0.0318054 0.831941 0.018672
22 1 0.212752 0.820311 0.994127
46 1 0.137482 0.878895 0.0502373
23 1 0.399346 0.837538 0.0243047
3 1 0.48603 0.973004 0.0368984
524 2 0.642869 0.928058 0.0234856
50 1 0.707706 0.790013 0.0508358
998 2 0.559485 0.741002 0.0391539
5 1 0.9174 0.934671 0.0293325
520 2 0.853196 0.777374 0.023428
25 1 0.788169 0.900624 0.997692
52 1 0.218806 0.0232529 0.104237
526 2 0.0815125 0.115002 0.066372
32 1 0.313017 0.124326 0.0754409
28 1 0.47377 0.0809075 0.0610031
33 1 0.399589 0.274832 0.0718498
58 1 0.463497 0.192872 0.106176
527 2 0.416715 0.0485651 0.0991864
532 2 0.284248 0.151011 0.116039
528 2 0.605421 0.132614 0.0850865
529 2 0.723337 0.0026401 0.102178
34 1 0.771201 0.0954926 0.070658
35 1 0.878165 0.256997 0.0694964
530 2 0.954781 0.0962823 0.0922942
534 2 0.794033 0.182362 0.102947
11 1 0.0380767 0.263252 0.0549457
37 1 0.15704 0.426454 0.0577314
506 2 0.236277 0.271009 0.0759455
531 2 0.188478 0.391736 0.109134
38 1 0.341981 0.428754 0.0797747
39 1 0.690273 0.411167 0.0988041
513 2 0.585874 0.440816 0.0591193
533 2 0.559573 0.287384 0.0798331
538 2 0.534127 0.43023 0.106236
31 1 0.937894 0.28869 0.102732
36 1 0.0236128 0.401548 0.0769874
540 2 0.8595 0.421717 0.0818743
41 1 0.113178 0.587969 0.0666317
536 2 0.184558 0.556925 0.109488
542 2 0.223142 0.69814 0.0883199
42 1 0.291827 0.581975 0.0664951
43 1 0.516698 0.600031 0.100128
48 1 0.418431 0.689537 0.057921
537 2 0.377643 0.495958 0.111095
567 2 0.370405 0.65097 0.112378
44 1 0.676973 0.612752 0.100447
49 1 0.59382 0.640001 0.0670347
539 2 0.758095 0.535406 0.0702488
544 2 0.792578 0.698339 0.0788489
70 1 0.926519 0.56836 0.0704521
545 2 0.0200007 0.709996 0.0536046
564 2 0.820616 0.570305 0.107759
570 2 0.0293799 0.64132 0.0962805
26 1 0.0771541 0.968358 0.106871
27 1 0.195573 0.880302 0.0937079
525 2 0.00423497 0.97563 0.0639789
546 2 0.0474227 0.796802 0.0883209
47 1 0.290963 0.79046 0.0607158
522 2 0.333561 0.946893 0.0712592
523 2 0.474542 0.855321 0.0664982
547 2 0.376315 0.806528 0.0949755
29 1 0.649264 0.952522 0.0708768
543 2 0.58534 0.796779 0.091482
73 1 0.47795 0.803453 0.125791
548 2 0.550765 0.964099 0.110446
549 2 0.744462 0.827227 0.0869119
30 1 0.794298 0.939852 0.0611644
55 1 0.933929 0.917005 0.100583
550 2 0.918155 0.822092 0.0676002
51 1 0.0294224 0.143335 0.1196
551 2 0.126862 0.076239 0.151996
53 1 0.475672 0.0760584 0.143445
77 1 0.270131 0.0631947 0.170705
552 2 0.368644 0.210504 0.151089
54 1 0.657005 0.0295498 0.15312
59 1 0.65759 0.150917 0.124863
79 1 0.550635 0.12359 0.178969
553 2 0.547461 0.234553 0.152008
554 2 0.703127 0.192559 0.162902
60 1 0.871042 0.0550433 0.125989
535 2 0.854096 0.220876 0.138867
80 1 0.792792 0.0138982 0.170124
555 2 0.0198085 0.172683 0.159655
56 1 0.0729224 0.330316 0.136466
57 1 0.210427 0.221506 0.152372
61 1 0.0400684 0.487454 0.111152
62 1 0.208523 0.42479 0.151657
556 2 0.0906402 0.282571 0.180286
63 1 0.347366 0.347231 0.114997
557 2 0.343966 0.325282 0.181638
558 2 0.42834 0.346654 0.153497
64 1 0.648696 0.517543 0.129289
89 1 0.588003 0.401229 0.155699
559 2 0.61492 0.311758 0.123298
560 2 0.748758 0.335797 0.147362
65 1 0.879862 0.399179 0.130157
86 1 0.963424 0.386711 0.161773
66 1 0.037217 0.649496 0.146364
541 2 0.12698 0.759692 0.118566
566 2 0.25713 0.698633 0.16168
67 1 0.274255 0.571101 0.139883
93 1 0.415659 0.743647 0.163894
562 2 0.452603 0.506195 0.143295
68 1 0.51594 0.659269 0.135726
69 1 0.688996 0.672505 0.148822
94 1 0.702774 0.521023 0.172853
563 2 0.569976 0.55708 0.157556
565 2 0.857137 0.551513 0.146871
71 1 0.127319 0.795955 0.16707
76 1 0.0192931 0.98993 0.176706
571 2 0.163704 0.917733 0.139035
72 1 0.27602 0.791457 0.13016
98 1 0.318787 0.896954 0.164798
572 2 0.310397 0.974248 0.135277
573 2 0.50335 0.893327 0.157665
74 1 0.636301 0.825541 0.137862
99 1 0.677672 0.890327 0.174623
75 1 0.871013 0.778362 0.108361
569 2 0.756926 0.729686 0.180674
574 2 0.773448 0.924616 0.129962
100 1 0.912835 0.746607 0.152409
575 2 0.999252 0.888727 0.137835
81 1 0.0129279 0.147206 0.201565
82 1 0.230141 0.207983 0.18872
107 1 0.224901 0.168507 0.226999
576 2 0.157847 0.0730341 0.204665
83 1 0.437647 0.216559 0.201938
577 2 0.332264 0.0735935 0.201833
578 2 0.555145 0.115309 0.22234
579 2 0.718252 0.136054 0.209334
85 1 0.875233 0.176493 0.174389
110 1 0.874876 0.169936 0.22336
87 1 0.217338 0.406111 0.195019
561 2 0.0791853 0.433127 0.18149
581 2 0.117978 0.307077 0.214991
88 1 0.480989 0.419223 0.191568
112 1 0.297017 0.484968 0.222261
113 1 0.449652 0.516018 0.222646
582 2 0.290904 0.294208 0.216641
583 2 0.498986 0.338045 0.224107
84 1 0.618788 0.285147 0.186203
109 1 0.663652 0.262495 0.222241
589 2 0.679989 0.437793 0.214342
90 1 0.830326 0.433441 0.17503
584 2 0.754155 0.319779 0.192351
115 1 0.855905 0.410079 0.214194
585 2 0.943889 0.313583 0.196753
590 2 0.953804 0.51518 0.192839
91 1 0.0730424 0.662162 0.181978
116 1 0.227665 0.565455 0.186186
586 2 0.0943701 0.568815 0.211982
591 2 0.179549 0.744944 0.200364
92 1 0.439472 0.580691 0.187366
587 2 0.487778 0.70567 0.210744
592 2 0.328136 0.681797 0.209023
568 2 0.568438 0.699166 0.176841
588 2 0.597639 0.544063 0.198661
594 2 0.6442 0.736481 0.21178
95 1 0.845074 0.614174 0.195199
595 2 0.00501269 0.706175 0.215078
96 1 0.992663 0.810218 0.190572
97 1 0.19532 0.933221 0.185473
596 2 0.0976491 0.878339 0.215567
78 1 0.452036 0.980298 0.189829
102 1 0.246496 0.968101 0.225317
597 2 0.381199 0.825516 0.194846
593 2 0.538854 0.848473 0.189395
124 1 0.532178 0.851067 0.225528
598 2 0.606521 0.984993 0.200333
580 2 0.896757 0.964496 0.221529
121 1 0.963915 0.824553 0.229546
599 2 0.724534 0.858175 0.208829
125 1 0.833633 0.728294 0.221497
600 2 0.87343 0.878589 0.178046
101 1 0.0496537 0.0426351 0.229778
106 1 0.030377 0.215225 0.234053
601 2 0.144438 0.103612 0.25948
126 1 0.0383116 0.979018 0.277343
131 1 0.0285688 0.188297 0.283059
108 1 0.396518 0.190667 0.235016
602 2 0.317599 0.0762533 0.253526
603 2 0.510362 0.0425741 0.254371
132 1 0.284403 0.251985 0.258224
133 1 0.449785 0.149501 0.272589
604 2 0.713408 0.110482 0.247063
608 2 0.539166 0.247426 0.252044
134 1 0.614466 0.172301 0.279958
605 2 0.939183 0.0985843 0.260948
130 1 0.804606 0.035248 0.26815
135 1 0.811421 0.189831 0.268706
111 1 0.0149956 0.403665 0.232956
606 2 0.122362 0.287299 0.263382
136 1 0.0385604 0.410576 0.274348
137 1 0.213901 0.407482 0.282495
607 2 0.359518 0.381456 0.242677
138 1 0.471609 0.364144 0.267288
114 1 0.599493 0.450406 0.246437
609 2 0.792641 0.314377 0.244379
139 1 0.646023 0.356727 0.271609
638 2 0.515143 0.456781 0.297574
610 2 0.926622 0.289923 0.257925
614 2 0.727736 0.478957 0.255608
140 1 0.884964 0.445982 0.255763
639 2 0.814792 0.389301 0.288371
117 1 0.207738 0.638856 0.22959
611 2 0.152836 0.512691 0.24978
616 2 0.110533 0.740658 0.24787
617 2 0.194525 0.653938 0.270542
118 1 0.394041 0.628997 0.247314
612 2 0.32397 0.491142 0.261629
613 2 0.490931 0.526009 0.261894
119 1 0.645209 0.585588 0.236061
618 2 0.569378 0.722148 0.246156
619 2 0.773122 0.70449 0.251924
144 1 0.597273 0.615913 0.272004
120 1 0.790434 0.582468 0.229252
615 2 0.937058 0.574065 0.232699
620 2 0.920436 0.700191 0.250708
141 1 0.0068172 0.583136 0.268155
145 1 0.834185 0.595963 0.27113
122 1 0.247641 0.804373 0.232762
621 2 0.116467 0.9047 0.251388
127 1 0.205538 0.974575 0.273765
146 1 0.970174 0.803728 0.273077
147 1 0.247752 0.789318 0.270969
103 1 0.417263 0.976318 0.224302
123 1 0.403265 0.790539 0.235353
622 2 0.3448 0.8978 0.254546
623 2 0.506388 0.877642 0.273104
128 1 0.382709 0.00333231 0.286557
148 1 0.386499 0.755499 0.27191
104 1 0.615116 0.951742 0.239652
624 2 0.665653 0.844147 0.261591
129 1 0.654171 0.98311 0.280349
105 1 0.759238 0.943689 0.239747
625 2 0.926353 0.941762 0.257632
150 1 0.82842 0.861965 0.269106
626 2 0.151737 0.0885181 0.297176
151 1 0.0183702 0.0654873 0.318893
156 1 0.0626207 0.213801 0.33066
651 2 0.164258 0.0785562 0.334897
627 2 0.29563 0.131692 0.30023
153 1 0.347088 0.0178138 0.330123
158 1 0.440189 0.144818 0.31588
652 2 0.288148 0.167794 0.342675
628 2 0.523354 0.0297446 0.296727
629 2 0.72602 0.100151 0.295562
154 1 0.686561 0.00959882 0.326166
159 1 0.629287 0.155451 0.318233
630 2 0.887609 0.089235 0.29767
155 1 0.851766 0.00575945 0.333603
160 1 0.78628 0.182263 0.330204
655 2 0.914015 0.139038 0.349746
631 2 0.132608 0.302066 0.303656
161 1 0.0186575 0.386329 0.324274
162 1 0.209039 0.425498 0.322222
656 2 0.104838 0.329814 0.355245
632 2 0.374969 0.271143 0.295607
637 2 0.363581 0.420862 0.307734
157 1 0.269007 0.287563 0.319925
633 2 0.526157 0.282357 0.30016
163 1 0.490072 0.393415 0.329623
164 1 0.638336 0.373077 0.313109
658 2 0.50798 0.244238 0.347164
659 2 0.700497 0.330302 0.349363
634 2 0.735793 0.260916 0.296784
635 2 0.946462 0.29709 0.300311
640 2 0.934739 0.474277 0.296632
165 1 0.817647 0.364307 0.323413
142 1 0.259742 0.545706 0.295417
636 2 0.0992808 0.50858 0.302402
641 2 0.0687135 0.674762 0.298535
167 1 0.171186 0.638047 0.326324
143 1 0.40737 0.610625 0.287431
642 2 0.303463 0.683809 0.309312
168 1 0.437003 0.555375 0.327364
662 2 0.280044 0.530006 0.344424
643 2 0.57297 0.636948 0.313692
644 2 0.722576 0.699411 0.287602
169 1 0.688201 0.517763 0.2967
663 2 0.598461 0.524126 0.335802
669 2 0.69026 0.66316 0.331818
645 2 0.900471 0.707865 0.297991
166 1 0.00498765 0.579856 0.330343
170 1 0.814698 0.592078 0.311884
646 2 0.100254 0.856833 0.293585
152 1 0.235801 0.93549 0.324732
171 1 0.0207512 0.780634 0.321632
172 1 0.194609 0.791022 0.31866
671 2 0.0983287 0.927942 0.336009
647 2 0.335127 0.87116 0.302816
648 2 0.467441 0.91541 0.321079
173 1 0.422011 0.742848 0.323136
672 2 0.341299 0.855001 0.345637
149 1 0.585071 0.751772 0.286826
174 1 0.624482 0.828131 0.322733
649 2 0.784162 0.91543 0.301735
650 2 0.946867 0.900507 0.300663
670 2 0.791661 0.759097 0.321184
674 2 0.756808 0.887065 0.349499
175 1 0.944533 0.900371 0.339332
176 1 0.0319969 0.00860273 0.362351
181 1 1.00003 0.202553 0.376024
182 1 0.163241 0.175124 0.36875
676 2 0.144361 0.0434603 0.386381
183 1 0.398472 0.196946 0.370952
677 2 0.299243 0.118339 0.396135
678 2 0.50344 0.0710903 0.391319
653 2 0.545581 0.0933699 0.345424
654 2 0.656447 0.177935 0.359022
179 1 0.609137 0.00178889 0.369545
184 1 0.545512 0.209623 0.382521
679 2 0.69544 0.137947 0.393485
180 1 0.765352 0.0715775 0.365657
185 1 0.805067 0.240151 0.365541
680 2 0.875803 0.0956295 0.394376
661 2 0.126024 0.488005 0.34705
186 1 0.016174 0.434298 0.369985
187 1 0.241221 0.406887 0.368137
681 2 0.108215 0.326078 0.397112
686 2 0.108135 0.510453 0.397555
657 2 0.353224 0.324066 0.350159
188 1 0.413162 0.473484 0.359947
213 1 0.36497 0.460944 0.404731
682 2 0.245578 0.275616 0.39779
683 2 0.45082 0.34172 0.386614
189 1 0.578854 0.406175 0.360544
684 2 0.669582 0.319141 0.386189
689 2 0.693631 0.477754 0.395625
660 2 0.934066 0.303932 0.349042
665 2 0.887417 0.46386 0.346216
190 1 0.821197 0.378697 0.374799
685 2 0.95351 0.32907 0.393278
666 2 0.0261343 0.704768 0.356808
191 1 0.993557 0.601548 0.382186
192 1 0.143011 0.653237 0.372731
691 2 0.127176 0.777394 0.396005
667 2 0.267174 0.700978 0.349082
193 1 0.435458 0.622009 0.367596
687 2 0.281781 0.572334 0.387487
692 2 0.300587 0.72813 0.400013
664 2 0.733653 0.509057 0.355608
668 2 0.56795 0.723767 0.350788
194 1 0.598808 0.60874 0.368877
688 2 0.514267 0.502979 0.388065
693 2 0.546754 0.724276 0.396291
694 2 0.756029 0.652544 0.379945
195 1 0.882939 0.613747 0.354717
690 2 0.842593 0.522833 0.38966
177 1 0.238043 0.955177 0.364817
197 1 0.168725 0.813269 0.360803
696 2 0.0753243 0.917189 0.40364
178 1 0.40021 0.01993 0.369085
198 1 0.421445 0.766891 0.374265
697 2 0.340065 0.874911 0.388923
698 2 0.496481 0.903175 0.397914
673 2 0.484717 0.880364 0.358917
199 1 0.671131 0.788741 0.373361
699 2 0.729272 0.907759 0.386604
675 2 0.878729 0.981063 0.370586
695 2 0.886076 0.725174 0.396009
196 1 0.991363 0.837545 0.376418
200 1 0.853129 0.780753 0.358506
700 2 0.910639 0.962565 0.409189
201 1 0.027816 0.0681379 0.414059
202 1 0.208949 0.995078 0.421907
206 1 0.98822 0.213304 0.417658
207 1 0.168618 0.15896 0.415856
231 1 0.992046 0.192696 0.470297
232 1 0.214897 0.189738 0.467847
701 2 0.124792 0.0776354 0.447407
203 1 0.410693 0.0283906 0.41959
208 1 0.39235 0.226731 0.410651
228 1 0.437092 0.982795 0.461024
233 1 0.384865 0.242823 0.463625
702 2 0.308482 0.0922172 0.443686
209 1 0.568105 0.256324 0.424488
229 1 0.58608 0.0315084 0.462019
234 1 0.576024 0.234447 0.463825
703 2 0.480107 0.123988 0.438182
704 2 0.70013 0.154491 0.441502
205 1 0.766743 0.0188189 0.416143
230 1 0.791599 0.0453634 0.459304
235 1 0.813392 0.201688 0.465736
705 2 0.883126 0.133245 0.434878
211 1 0.0336235 0.412389 0.429026
212 1 0.215174 0.413589 0.424356
236 1 0.0244776 0.41243 0.469637
237 1 0.194918 0.447761 0.465485
706 2 0.0958249 0.284825 0.442454
238 1 0.351212 0.399461 0.454367
707 2 0.292781 0.231637 0.435362
708 2 0.4525 0.368933 0.429336
713 2 0.515514 0.526705 0.431121
214 1 0.586559 0.410652 0.417437
239 1 0.542852 0.410575 0.461834
709 2 0.72997 0.314592 0.437519
714 2 0.701985 0.474452 0.440804
210 1 0.819881 0.235549 0.414087
215 1 0.850876 0.389151 0.415965
240 1 0.818904 0.411483 0.469719
710 2 0.926757 0.320327 0.445741
217 1 0.181398 0.641307 0.41476
241 1 0.0476089 0.672925 0.466668
242 1 0.190146 0.643458 0.460123
711 2 0.107378 0.527359 0.437589
218 1 0.436324 0.625739 0.408813
243 1 0.43059 0.611211 0.4624
712 2 0.32314 0.552224 0.439341
717 2 0.294681 0.709994 0.438301
219 1 0.630537 0.615991 0.413791
718 2 0.55279 0.656377 0.44468
719 2 0.710761 0.708327 0.443383
216 1 0.982746 0.60332 0.41895
220 1 0.811704 0.609322 0.423941
715 2 0.900897 0.507201 0.449112
720 2 0.883244 0.702427 0.446679
222 1 0.211619 0.830714 0.425004
227 1 0.242864 0.969437 0.460481
716 2 0.10708 0.747044 0.437754
247 1 0.203889 0.799595 0.46506
721 2 0.0728409 0.915264 0.44187
223 1 0.432674 0.775853 0.421287
248 1 0.442687 0.769383 0.461066
722 2 0.364499 0.896436 0.436255
204 1 0.608039 0.0155363 0.419653
224 1 0.644903 0.81008 0.415708
723 2 0.530674 0.881431 0.436947
724 2 0.669014 0.905394 0.44963
221 1 0.940179 0.822172 0.426119
225 1 0.786545 0.824996 0.424954
226 1 0.98718 0.0149063 0.466535
246 1 0.979836 0.831536 0.467584
250 1 0.779068 0.805355 0.462943
725 2 0.862634 0.928855 0.447337
256 1 0.0443615 0.157279 0.513457
257 1 0.217393 0.189114 0.510637
726 2 0.110459 0.0678185 0.485829
258 1 0.37984 0.193766 0.510406
727 2 0.328333 0.0801929 0.484197
752 2 0.281695 0.0909342 0.530472
254 1 0.611711 0.0493586 0.507545
259 1 0.596806 0.238986 0.513354
728 2 0.487508 0.120906 0.484682
729 2 0.68821 0.143458 0.47942
255 1 0.760374 0.0589914 0.509854
260 1 0.795963 0.203947 0.51179
730 2 0.898182 0.103392 0.490995
755 2 0.885482 0.121954 0.53337
262 1 0.175141 0.417588 0.506208
731 2 0.095769 0.279976 0.489091
732 2 0.253263 0.3173 0.483383
263 1 0.34541 0.415106 0.494853
733 2 0.476157 0.312651 0.488584
758 2 0.455543 0.370901 0.525534
264 1 0.590712 0.413006 0.513103
734 2 0.694523 0.307039 0.48334
739 2 0.713469 0.457145 0.492314
261 1 0.990104 0.407843 0.508079
265 1 0.838296 0.391925 0.511567
735 2 0.936019 0.297189 0.489973
760 2 0.921275 0.281662 0.530391
267 1 0.161227 0.632326 0.511527
736 2 0.085859 0.540329 0.48896
741 2 0.0626361 0.779381 0.496961
737 2 0.279117 0.557758 0.485767
761 2 0.0734225 0.515592 0.531685
268 1 0.378665 0.596224 0.511782
742 2 0.329065 0.700665 0.485643
738 2 0.471628 0.499175 0.491587
762 2 0.285481 0.555498 0.541992
244 1 0.602824 0.555772 0.474069
269 1 0.619335 0.580159 0.517973
743 2 0.511683 0.664797 0.491094
744 2 0.68216 0.692646 0.495048
245 1 0.757849 0.576917 0.465395
266 1 0.997796 0.631689 0.513091
270 1 0.806107 0.608985 0.520157
740 2 0.912369 0.516628 0.489644
745 2 0.896679 0.69565 0.48993
252 1 0.253482 0.952716 0.510933
272 1 0.238942 0.81222 0.507964
746 2 0.141938 0.914095 0.48343
771 2 0.107813 0.886981 0.523262
253 1 0.400864 0.992911 0.511416
273 1 0.421148 0.803387 0.510874
747 2 0.340789 0.888036 0.482814
249 1 0.604799 0.812351 0.473708
274 1 0.595637 0.814984 0.512095
748 2 0.511993 0.926292 0.496831
749 2 0.708127 0.93866 0.486572
773 2 0.480307 0.915352 0.542551
774 2 0.707014 0.911978 0.525556
251 1 0.998846 0.998592 0.5171
271 1 0.936423 0.838054 0.512341
275 1 0.78026 0.803884 0.502917
750 2 0.85676 0.935705 0.488472
281 1 0.00981209 0.171261 0.549227
282 1 0.17578 0.233942 0.556609
751 2 0.14202 0.0751959 0.534769
776 2 0.126186 0.0538328 0.572354
278 1 0.399996 0.0328466 0.555658
283 1 0.355314 0.234069 0.558896
777 2 0.288459 0.10645 0.572582
778 2 0.454517 0.145478 0.576955
284 1 0.576077 0.22155 0.555014
753 2 0.499369 0.123345 0.524821
754 2 0.659043 0.11053 0.540754
779 2 0.667659 0.122006 0.578686
285 1 0.78218 0.177753 0.558172
780 2 0.958271 0.104328 0.581577
286 1 0.0150022 0.427543 0.557683
287 1 0.186006 0.430571 0.547899
756 2 0.0764202 0.301763 0.537359
781 2 0.106633 0.338844 0.57678
288 1 0.374038 0.454078 0.554858
757 2 0.293788 0.328267 0.530238
782 2 0.314779 0.336979 0.580558
783 2 0.470386 0.343513 0.57885
289 1 0.622145 0.409549 0.551917
759 2 0.717338 0.324781 0.527597
784 2 0.681174 0.282897 0.577627
764 2 0.735785 0.492187 0.531159
290 1 0.793014 0.362002 0.560617
785 2 0.942741 0.293149 0.56689
292 1 0.18187 0.63727 0.556584
766 2 0.054391 0.751556 0.541501
786 2 0.124403 0.514584 0.580014
791 2 0.0644045 0.728045 0.57875
293 1 0.388226 0.616202 0.562222
767 2 0.332981 0.709318 0.530715
787 2 0.289098 0.521509 0.579341
792 2 0.316149 0.721513 0.580944
294 1 0.640727 0.598933 0.555899
763 2 0.470835 0.540819 0.532925
768 2 0.522525 0.692527 0.531047
769 2 0.707501 0.73558 0.53223
788 2 0.535308 0.508379 0.576089
789 2 0.692445 0.497141 0.579807
793 2 0.53421 0.670788 0.581023
794 2 0.707903 0.710269 0.581335
291 1 0.00900711 0.613571 0.554757
295 1 0.805426 0.619995 0.558204
765 2 0.913677 0.513726 0.535819
770 2 0.870483 0.735529 0.536802
790 2 0.894216 0.490638 0.574373
795 2 0.914179 0.740937 0.578227
277 1 0.245558 0.978498 0.555359
297 1 0.216034 0.794258 0.552209
796 2 0.0845562 0.900693 0.581033
298 1 0.436208 0.774546 0.561822
772 2 0.333286 0.87004 0.53865
797 2 0.325267 0.866492 0.578236
798 2 0.485376 0.91822 0.581945
279 1 0.592311 0.992773 0.561512
299 1 0.607458 0.834158 0.557206
799 2 0.758029 0.985991 0.565058
276 1 0.0031426 0.99824 0.553834
296 1 0.958511 0.855507 0.552152
300 1 0.790648 0.836477 0.557284
775 2 0.850672 0.967817 0.536565
800 2 0.896626 0.959869 0.582845
306 1 0.0857858 0.194354 0.593145
307 1 0.227951 0.233823 0.598818
801 2 0.142 0.0739367 0.612449
326 1 0.999233 0.0227951 0.647709
327 1 0.2249 0.0132687 0.64993
331 1 0.0404026 0.160568 0.633143
332 1 0.203449 0.177047 0.645721
303 1 0.381087 0.00356409 0.59553
802 2 0.294238 0.111272 0.615194
803 2 0.466765 0.130814 0.621972
328 1 0.441336 1.00034 0.643307
333 1 0.370151 0.23642 0.64107
304 1 0.579823 0.0544431 0.601786
309 1 0.572758 0.244431 0.60457
804 2 0.701213 0.109077 0.622482
329 1 0.570867 0.0506906 0.642951
334 1 0.593522 0.227685 0.644126
280 1 0.806437 0.0714525 0.59788
305 1 0.897984 0.109876 0.622907
310 1 0.82135 0.268394 0.590345
335 1 0.779753 0.237385 0.647886
312 1 0.201872 0.418426 0.60594
806 2 0.117375 0.289908 0.625339
336 1 -0.000568348 0.37919 0.645805
337 1 0.176851 0.418173 0.646122
308 1 0.372088 0.224843 0.597535
313 1 0.397098 0.446409 0.607271
807 2 0.30114 0.360696 0.632991
808 2 0.491533 0.332322 0.623763
338 1 0.411883 0.459255 0.644178
314 1 0.583829 0.416568 0.606261
809 2 0.695979 0.326273 0.615554
814 2 0.718624 0.517193 0.625762
339 1 0.593356 0.376923 0.653929
311 1 0.988967 0.393143 0.595273
315 1 0.809256 0.417288 0.602464
810 2 0.910197 0.282038 0.624221
815 2 0.953239 0.506273 0.619424
340 1 0.804088 0.409351 0.642333
317 1 0.194867 0.657343 0.603405
811 2 0.0990601 0.542779 0.6207
816 2 0.103829 0.718024 0.631875
342 1 0.233225 0.638374 0.643638
318 1 0.407683 0.618457 0.603492
812 2 0.285225 0.519103 0.624887
817 2 0.319131 0.724431 0.625836
343 1 0.422736 0.627979 0.651827
319 1 0.620144 0.607146 0.605398
813 2 0.543846 0.52281 0.632669
818 2 0.53587 0.700087 0.632683
819 2 0.676204 0.744094 0.631672
316 1 0.0120192 0.611093 0.595921
320 1 0.841435 0.608679 0.609945
341 1 0.969643 0.631375 0.644048
345 1 0.806877 0.589824 0.655047
301 1 0.00390559 0.995031 0.608227
302 1 0.237667 0.972486 0.597785
322 1 0.221308 0.808978 0.603556
821 2 0.136744 0.909222 0.630052
323 1 0.430273 0.773038 0.603483
822 2 0.337956 0.901656 0.622661
347 1 0.208778 0.809694 0.647204
348 1 0.397484 0.811083 0.653204
324 1 0.61731 0.834167 0.594833
823 2 0.525915 0.870853 0.627189
824 2 0.662541 0.941747 0.616975
820 2 0.88637 0.748072 0.629949
321 1 0.998042 0.835735 0.61238
325 1 0.774649 0.842834 0.596008
825 2 0.861032 0.940315 0.628084
826 2 0.126501 0.0941509 0.673506
352 1 0.24405 0.0189015 0.693089
357 1 0.237272 0.187203 0.690661
851 2 0.0522671 0.117541 0.714452
827 2 0.323834 0.0982544 0.666586
828 2 0.488673 0.156197 0.66496
353 1 0.490102 0.0380589 0.695998
358 1 0.397875 0.232656 0.698433
829 2 0.678813 0.131695 0.671233
854 2 0.68164 0.124244 0.714608
805 2 0.936575 0.192232 0.662506
330 1 0.828588 0.0496428 0.656588
830 2 0.968128 0.0638069 0.687279
356 1 0.997926 0.247704 0.694672
355 1 0.794275 0.0702235 0.692318
360 1 0.817709 0.221735 0.69967
831 2 0.109094 0.298177 0.669878
361 1 0.0151545 0.414362 0.68945
362 1 0.177902 0.45049 0.683088
856 2 0.134869 0.335848 0.703408
832 2 0.280626 0.328781 0.674967
833 2 0.446171 0.325778 0.665985
363 1 0.376607 0.416625 0.696972
834 2 0.692674 0.311683 0.674982
839 2 0.694438 0.487746 0.666484
359 1 0.568871 0.244674 0.68804
364 1 0.608458 0.40261 0.699763
835 2 0.878 0.337252 0.673699
365 1 0.797385 0.447067 0.691059
836 2 0.0572633 0.539565 0.660747
366 1 0.994291 0.659167 0.686314
367 1 0.191428 0.627523 0.691244
861 2 0.0665927 0.544872 0.701901
837 2 0.312587 0.533142 0.672718
842 2 0.311358 0.73534 0.675538
368 1 0.403129 0.635087 0.693774
344 1 0.614314 0.613869 0.657133
838 2 0.505439 0.467755 0.678567
843 2 0.500696 0.736162 0.674094
844 2 0.730139 0.704863 0.67161
369 1 0.611307 0.588676 0.692127
840 2 0.922473 0.523302 0.677671
845 2 0.874111 0.747556 0.671772
370 1 0.804846 0.594194 0.694622
841 2 0.113506 0.751397 0.674747
846 2 0.0934019 0.921656 0.669828
371 1 -0.000134366 0.806546 0.701774
372 1 0.22904 0.859252 0.699293
847 2 0.333514 0.928819 0.669912
848 2 0.502848 0.911356 0.674992
373 1 0.409313 0.814696 0.698252
349 1 0.623729 0.833639 0.665175
849 2 0.714693 0.964349 0.652203
354 1 0.63698 0.99232 0.694383
374 1 0.615665 0.808975 0.704795
346 1 0.00660969 0.831814 0.649007
350 1 0.797958 0.831523 0.646944
850 2 0.943684 0.918444 0.675728
375 1 0.757104 0.870691 0.686525
377 1 0.245477 0.00148954 0.732627
382 1 0.252063 0.163298 0.737007
876 2 0.118689 0.0633942 0.748936
852 2 0.374935 0.106384 0.716358
853 2 0.506527 0.157594 0.718822
378 1 0.388125 0.0375242 0.750644
383 1 0.392408 0.228823 0.737293
877 2 0.369407 0.165485 0.772153
384 1 0.607663 0.249105 0.734259
878 2 0.494353 0.137609 0.75911
879 2 0.661687 0.117058 0.751649
380 1 0.750902 0.00184917 0.743108
855 2 0.846116 0.110018 0.728227
376 1 0.982536 0.997359 0.739315
381 1 0.95259 0.209695 0.739723
385 1 0.808275 0.252059 0.739713
880 2 0.94049 0.104549 0.76557
386 1 0.0233247 0.391514 0.730372
387 1 0.164084 0.461447 0.72791
881 2 0.11672 0.247702 0.73406
887 2 0.268258 0.498461 0.756353
857 2 0.272522 0.321949 0.714614
858 2 0.481339 0.328281 0.719353
863 2 0.471084 0.523718 0.721275
388 1 0.38434 0.407895 0.741229
882 2 0.271473 0.312357 0.752705
883 2 0.471993 0.303205 0.766765
859 2 0.729828 0.350359 0.718466
389 1 0.601103 0.406345 0.74371
860 2 0.903218 0.329347 0.715204
865 2 0.898167 0.506096 0.724044
884 2 0.708488 0.332694 0.77672
390 1 0.783982 0.41529 0.749519
885 2 0.925875 0.349295 0.761928
866 2 0.134051 0.733962 0.712978
392 1 0.2055 0.612872 0.737269
886 2 0.0509902 0.541353 0.744234
862 2 0.298961 0.545031 0.712675
867 2 0.287848 0.737049 0.715814
393 1 0.395163 0.658116 0.740769
888 2 0.494725 0.502012 0.760084
864 2 0.715006 0.526707 0.722869
868 2 0.505898 0.712312 0.717237
869 2 0.703919 0.712391 0.722107
394 1 0.600209 0.607334 0.745343
889 2 0.701483 0.519956 0.767298
870 2 0.855608 0.720701 0.706947
391 1 0.980427 0.661889 0.725245
395 1 0.815181 0.60926 0.742949
890 2 0.901315 0.526999 0.763104
895 2 0.966815 0.668971 0.765238
351 1 0.0910674 0.956064 0.706974
871 2 0.113233 0.875815 0.742011
397 1 0.184989 0.754079 0.751846
872 2 0.365378 0.923913 0.7243
873 2 0.528064 0.899611 0.726707
398 1 0.32228 0.825206 0.74833
897 2 0.245114 0.920272 0.76987
898 2 0.462308 0.794012 0.753882
379 1 0.563984 0.0406094 0.735394
399 1 0.603659 0.797727 0.747462
874 2 0.751339 0.862859 0.725706
875 2 0.857166 0.959918 0.716167
396 1 0.932139 0.847501 0.739362
400 1 0.810161 0.760565 0.74915
401 1 0.116182 0.0943513 0.794184
402 1 0.250426 0.0842341 0.775958
406 1 0.041734 0.223917 0.774801
431 1 0.0768754 0.210962 0.817312
902 2 0.322249 0.114925 0.808856
409 1 0.527231 0.121276 0.801037
909 2 0.604748 0.234137 0.776717
405 1 0.952799 0.0543262 0.809219
410 1 0.779716 0.167815 0.773849
435 1 0.7605 0.07497 0.807441
905 2 0.908979 0.223512 0.801661
407 1 0.213053 0.2347 0.78413
412 1 0.110669 0.376264 0.76105
906 2 0.207522 0.359721 0.814748
911 2 0.0176211 0.483686 0.819667
912 2 0.175746 0.506116 0.792641
408 1 0.355134 0.283233 0.796455
413 1 0.387551 0.415217 0.780415
438 1 0.418032 0.386808 0.825237
414 1 0.57664 0.415765 0.786696
908 2 0.503238 0.290673 0.803405
440 1 0.682036 0.223286 0.820971
913 2 0.547135 0.514172 0.828458
411 1 0.976842 0.35957 0.798001
415 1 0.777727 0.494953 0.802205
910 2 0.819087 0.341371 0.805401
416 1 0.0362859 0.504545 0.784945
417 1 0.149688 0.613376 0.816727
891 2 0.11568 0.636648 0.775904
418 1 0.379339 0.569429 0.785368
892 2 0.294045 0.698579 0.776565
443 1 0.391297 0.545317 0.825878
918 2 0.459533 0.674714 0.813418
419 1 0.636649 0.577333 0.798623
893 2 0.483656 0.66477 0.771729
894 2 0.698991 0.678365 0.768742
420 1 0.834352 0.62606 0.786449
920 2 0.971172 0.651031 0.802637
421 1 0.0713028 0.781691 0.776558
422 1 0.209471 0.798491 0.798291
896 2 0.0193606 0.9504 0.775186
916 2 0.0338923 0.792782 0.821333
921 2 0.0529743 0.941296 0.8091
922 2 0.193747 0.971533 0.800507
403 1 0.403114 0.992369 0.790264
423 1 0.389892 0.828037 0.797722
404 1 0.525296 0.930591 0.764881
424 1 0.582512 0.793009 0.785977
899 2 0.746983 0.879809 0.769644
904 2 0.647086 0.0135361 0.783941
919 2 0.723553 0.741923 0.807537
923 2 0.518851 0.953501 0.808134
924 2 0.712453 0.916766 0.814331
425 1 0.92118 0.810697 0.777797
900 2 0.853448 -0.0015513 0.771423
925 2 0.896772 0.887616 0.815579
432 1 0.133158 0.195679 0.864452
901 2 0.194459 0.0733629 0.8346
926 2 0.0322912 0.0760161 0.87662
427 1 0.272266 0.0600241 0.870916
433 1 0.465782 0.173544 0.848987
903 2 0.486156 0.0241313 0.841067
907 2 0.263301 0.239258 0.837425
932 2 0.360126 0.212228 0.876097
429 1 0.624669 0.0564761 0.827251
434 1 0.590361 0.116456 0.873864
929 2 0.734728 0.102665 0.860815
930 2 0.935653 0.139694 0.837751
935 2 0.825837 0.249902 0.840967
950 2 0.882068 0.0325853 0.87684
936 2 0.102816 0.403224 0.848791
937 2 0.259301 0.533369 0.84548
437 1 0.327981 0.373375 0.859084
463 1 0.466543 0.464162 0.861552
439 1 0.542621 0.339443 0.848265
914 2 0.678403 0.422166 0.832308
934 2 0.685368 0.318968 0.865106
436 1 0.9801 0.304955 0.832786
915 2 0.819672 0.463289 0.843576
931 2 0.00671976 0.297011 0.86866
940 2 0.957688 0.430439 0.861927
441 1 0.0482127 0.543872 0.860894
442 1 0.124146 0.684765 0.845782
941 2 0.0485767 0.769945 0.873022
917 2 0.303213 0.695063 0.821776
942 2 0.39699 0.636126 0.86667
444 1 0.595007 0.669284 0.829049
939 2 0.556908 0.599251 0.864899
943 2 0.523982 0.745193 0.866277
944 2 0.734599 0.741673 0.875693
445 1 0.769646 0.598936 0.830347
470 1 0.841365 0.57937 0.870743
945 2 0.91316 0.670346 0.841295
426 1 0.0310213 0.995846 0.841271
447 1 0.16137 0.900105 0.842173
472 1 0.258339 0.732853 0.865365
946 2 0.140775 0.916697 0.882267
428 1 0.314912 0.917965 0.824477
448 1 0.386357 0.798371 0.847041
947 2 0.321318 0.890344 0.876191
948 2 0.491447 0.904276 0.865863
449 1 0.540798 0.825873 0.826561
949 2 0.667055 0.957842 0.855613
430 1 0.830296 0.956271 0.842313
446 1 0.919475 0.866076 0.877495
450 1 0.829461 0.790259 0.842087
451 1 0.039154 0.158404 0.911393
927 2 0.214322 0.144267 0.900879
951 2 0.130801 0.252273 0.93451
458 1 0.36165 0.18752 0.915123
928 2 0.419811 0.0595053 0.89653