ITEM: TIMESTEP
12330
ITEM: NUMBER OF ATOMS
1000
ITEM: BOX BOUNDS pp pp pp
0.0000000000000000e+00 6.2996052494743662e+00
0.0000000000000000e+00 6.2996052494743662e+00
0.0000000000000000e+00 2.5198420997897465e+01
ITEM: ATOMS id type xs ys zs
46 1 0.0336141 0.0327658 0.0108081
13 1 0.0991586 0.146111 0.02869
16 1 0.0784311 0.243725 0.993323
528 2 0.160455 0.0757383 0.0627065
918 2 0.180454 0.00844293 0.0263096
28 1 0.266823 0.150993 0.0363055
498 1 0.356929 0.0300259 0.0342063
8 1 0.373308 0.15732 0.000774844
17 1 0.55278 0.190288 0.0597691
529 2 0.666142 0.204902 0.0279557
571 2 0.491036 0.118115 0.0227939
486 1 0.0447675 0.189995 0.0656158
507 2 0.838688 0.0121416 0.0595604
27 1 0.777868 0.170115 0.0535498
71 1 0.880298 0.111297 0.0294467
510 2 0.136309 0.369292 0.00941842
532 2 0.0330661 0.580598 0.0280827
977 2 0.140553 0.317104 0.056462
85 1 0.166968 0.487048 0.035593
581 2 0.293638 0.325669 0.0464978
957 2 0.0759582 0.481943 0.0659722
454 1 0.407182 0.330878 0.0156884
489 1 0.29738 0.479478 0.00276465
512 2 0.440874 0.410854 0.0525946
573 2 0.553563 0.308249 0.0176406
999 2 0.637572 0.42692 0.0238692
982 2 0.785546 0.318964 0.0284286
552 2 0.626059 0.576438 0.0493389
58 1 0.494371 0.483847 0.0158545
544 2 0.946513 0.252475 0.0329886
485 1 0.954458 0.438584 0.0260936
73 1 0.75537 0.475505 0.0480612
987 2 0.119391 0.687628 0.00712979
86 1 0.889608 0.567646 0.0524389
49 1 0.923631 0.70539 0.0264626
63 1 0.371099 0.552785 0.0314234
963 2 0.24575 0.639881 0.0322814
514 2 0.363727 0.759612 0.0484533
506 2 0.64103 0.698153 0.0174971
33 1 0.684215 0.721775 0.0540812
947 2 0.557701 0.785922 0.0356714
31 1 0.717173 0.866871 0.986039
989 2 0.752852 0.565718 0.0162133
961 2 0.895431 0.571438 0.994791
545 2 0.787347 0.765764 0.0104443
520 2 0.771826 0.59809 0.0735907
37 1 0.0178967 0.694885 0.0603756
525 2 0.126861 0.920159 0.055778
524 2 0.0661452 0.799766 0.0354352
549 2 0.915872 0.854636 0.0335009
18 1 0.29047 0.895651 0.0354703
9 1 0.375236 0.722621 0.00837892
12 1 0.516847 0.948961 0.0381313
3 1 0.321084 0.0262351 0.989091
95 1 0.678528 0.888189 0.0193861
29 1 0.681309 0.0260869 0.031981
548 2 0.598919 0.97744 0.0705524
21 1 0.831537 0.73578 0.0516852
468 1 0.819964 0.966504 0.0195443
560 2 0.271741 0.0559097 0.100354
1 1 0.996356 0.185962 0.115965
57 1 0.115094 0.119781 0.103373
82 1 0.244487 0.290305 0.126348
48 1 0.465584 0.0422618 0.0665212
52 1 0.245377 0.197866 0.0796677
92 1 0.375343 0.144559 0.0904582
565 2 0.73098 0.0480252 0.125162
516 2 0.724389 0.0653142 0.0784079
96 1 0.611412 0.136682 0.0918236
100 1 0.912833 0.0320138 0.0959532
598 2 0.793666 0.161965 0.102742
41 1 0.900936 0.230164 0.0727087
11 1 0.0868509 0.283202 0.0949429
985 2 0.167189 0.409979 0.0947395
590 2 0.990273 0.332343 0.126299
526 2 0.418409 0.240973 0.0478236
7 1 0.313072 0.473915 0.0768093
527 2 0.336092 0.315194 0.0873339
600 2 0.585362 0.351172 0.0544678
503 2 0.505699 0.280959 0.0935965
521 2 0.697014 0.285518 0.086417
79 1 0.644517 0.379229 0.12808
558 2 0.537556 0.430838 0.0878781
77 1 0.923174 0.513013 0.0933487
35 1 0.832266 0.400793 0.0810594
981 2 0.981797 0.365696 0.061894
533 2 0.782533 0.458824 0.11551
551 2 0.262547 0.581576 0.101973
65 1 0.160791 0.614828 0.0627261
517 2 0.0709225 0.613073 0.0988799
70 1 0.0757906 0.840542 0.089617
523 2 0.250428 0.730384 0.0835198
547 2 0.429787 0.559483 0.0979819
56 1 0.336654 0.611348 0.0638932
537 2 0.380525 0.747474 0.0983189
998 2 0.509712 0.678593 0.0666996
519 2 0.518713 0.676496 0.109741
511 2 0.679383 0.461482 0.0791214
15 1 0.660957 0.668632 0.0976933
50 1 0.605908 0.545616 0.122933
64 1 0.788284 0.641105 0.114532
40 1 0.9028 0.668897 0.0904039
997 2 0.215015 0.79382 0.0520845
967 2 0.99565 0.0380638 0.0498336
546 2 0.0779533 0.983136 0.0893893
23 1 0.288418 0.93691 0.0725245
559 2 0.439897 0.878631 0.073915
577 2 0.517278 0.860564 0.106511
597 2 0.262694 0.768677 0.126842
971 2 0.599166 0.82135 0.0759327
543 2 0.480968 0.035337 0.102985
513 2 0.660928 0.947422 0.106621
587 2 0.681273 0.799968 0.130015
534 2 0.736061 0.888516 0.0604365
39 1 0.927859 0.867425 0.0819217
502 2 0.77963 0.751288 0.0895574
575 2 0.807644 0.873549 0.107821
566 2 0.977844 0.137544 0.176798
101 1 0.00502121 0.285165 0.169239
583 2 0.206753 0.0691695 0.135166
93 1 0.200257 0.200523 0.15908
589 2 0.345938 0.161089 0.144656
599 2 0.511798 0.156259 0.126111
99 1 0.621478 0.0690492 0.152647
34 1 0.68176 0.192257 0.12288
80 1 0.866619 0.244854 0.154251
554 2 0.829439 0.0366373 0.170095
26 1 0.747251 0.156383 0.167225
576 2 0.875158 0.123206 0.132267
83 1 0.134478 0.332182 0.149401
125 1 0.0536545 0.46732 0.116724
531 2 0.449042 0.451193 0.182249
538 2 0.305971 0.428498 0.113433
561 2 0.330759 0.414619 0.159571
78 1 0.404781 0.256578 0.119755
62 1 0.462467 0.439771 0.123756
76 1 0.490824 0.328368 0.146205
604 2 0.758527 0.318687 0.14142
557 2 0.556096 0.446656 0.157851
671 2 0.620245 0.265512 0.154411
89 1 0.839811 0.318721 0.109274
582 2 0.82755 0.511671 0.178815
564 2 0.920121 0.401668 0.152931
553 2 0.00393341 0.668851 0.130964
91 1 0.169412 0.62863 0.130821
122 1 0.0272496 0.692528 0.169703
38 1 0.388975 0.692116 0.141406
141 1 0.307358 0.569254 0.15347
97 1 0.232198 0.705208 0.164252
509 2 0.484553 0.584804 0.147856
116 1 0.437356 0.624928 0.181614
14 1 0.598824 0.584045 0.174779
66 1 0.699691 0.661853 0.149825
139 1 0.556231 0.723357 0.155695
10 1 0.900281 0.770951 0.122676
94 1 0.712248 0.480621 0.154768
594 2 0.911463 0.538784 0.127996
111 1 0.00986421 0.523184 0.160647
615 2 0.866946 0.654216 0.155021
44 1 0.0502708 0.0335338 0.130398
550 2 0.125682 0.780278 0.13897
42 1 0.982884 0.895705 0.118755
541 2 0.992083 0.975085 0.166684
542 2 0.186837 0.914651 0.1156
555 2 0.373401 0.928996 0.106036
53 1 0.26596 0.932009 0.151996
88 1 0.417224 0.836563 0.139869
536 2 0.410556 0.934465 0.181115
59 1 0.709627 0.937845 0.146486
90 1 0.542679 0.911983 0.147257
539 2 0.437823 0.0201962 0.143941
98 1 0.957532 0.831164 0.153724
60 1 0.86201 0.952716 0.140715
540 2 0.764201 0.808562 0.167168
610 2 0.0460868 0.264497 0.21044
118 1 0.148366 0.0798465 0.176325
107 1 0.220728 0.348409 0.183803
128 1 0.171368 0.0587269 0.221691
638 2 0.250107 0.211214 0.204722
74 1 0.338658 0.108279 0.193428
112 1 0.486976 0.155414 0.166559
110 1 0.462588 0.200011 0.207715
603 2 0.307835 0.0526404 0.234984
157 1 0.561307 0.0636203 0.198448
55 1 0.726708 0.0690294 0.202783
105 1 0.918051 0.0542326 0.201637
109 1 0.872591 0.204262 0.19793
605 2 0.8593 0.134679 0.233013
595 2 0.185935 0.480939 0.148716
54 1 0.091962 0.421732 0.181251
535 2 0.0754486 0.504272 0.213651
651 2 0.168131 0.354902 0.229331
556 2 0.382754 0.281286 0.183573
586 2 0.501625 0.366381 0.228965
611 2 0.332768 0.342314 0.215479
84 1 0.561299 0.313346 0.191182
608 2 0.446273 0.534202 0.214621
607 2 0.591097 0.25108 0.222884
580 2 0.918359 0.367073 0.19339
150 1 0.755463 0.314897 0.188387
81 1 0.746505 0.44517 0.214137
585 2 0.733758 0.208489 0.221275
622 2 0.136737 0.654046 0.209084
606 2 0.222459 0.529045 0.23322
632 2 0.144154 0.583806 0.175472
87 1 0.284831 0.506825 0.193808
591 2 0.213868 0.710287 0.23654
72 1 0.314783 0.658217 0.208926
570 2 0.47745 0.687072 0.213616
635 2 0.615298 0.524578 0.219092
563 2 0.753416 0.646219 0.185241
593 2 0.643144 0.698169 0.222487
104 1 0.953459 0.591906 0.194043
108 1 0.872966 0.740313 0.184348
665 2 0.771144 0.611875 0.222416
596 2 0.063361 0.972775 0.20266
642 2 0.0401483 0.796194 0.199449
578 2 0.134292 0.906629 0.170252
616 2 0.201858 0.801846 0.202262
127 1 0.257727 0.967667 0.189859
613 2 0.347496 0.817275 0.220675
562 2 0.370585 0.768519 0.179732
134 1 0.425626 0.959108 0.225734
69 1 0.519537 0.834756 0.178524
68 1 0.676013 0.955304 0.184109
572 2 0.645411 0.928764 0.220536
144 1 0.616683 0.740727 0.185133
149 1 0.513082 0.829598 0.218696
117 1 0.793575 0.969267 0.22784
530 2 0.850822 0.918675 0.196772
648 2 0.875946 0.725138 0.22654
567 2 0.989201 0.870652 0.236779
113 1 0.756275 0.811578 0.212684
602 2 0.265454 0.131904 0.27093
172 1 0.0707661 0.0423807 0.273101
102 1 0.0270636 0.037285 0.237852
568 2 0.149042 0.903791 0.227196
176 1 0.200694 0.950729 0.281443
137 1 0.337552 0.251436 0.285552
124 1 0.440802 0.0895238 0.257552
626 2 0.358564 0.215556 0.243254
612 2 0.481198 0.171676 0.28915
163 1 0.331478 0.13703 0.312564
579 2 0.630979 0.112787 0.233881
653 2 0.616738 0.108264 0.275403
151 1 0.743814 0.0242682 0.260536
623 2 0.690789 0.235269 0.261396
138 1 0.525751 0.247711 0.253748
667 2 0.00424948 0.219791 0.254753
614 2 0.923126 0.044591 0.282057
618 2 0.191948 0.439189 0.270188
569 2 0.167143 0.201738 0.234634
145 1 0.132705 0.273953 0.264938
135 1 0.0356084 0.41777 0.251576
119 1 0.012731 0.315233 0.294607
140 1 0.31009 0.373807 0.249975
636 2 0.329631 0.45654 0.291167
675 2 0.44194 0.386277 0.27309
114 1 0.462558 0.328039 0.307572
637 2 0.60809 0.265157 0.298242
670 2 0.617097 0.36626 0.253375
123 1 0.588751 0.460542 0.292287
601 2 0.912975 0.311325 0.227943
652 2 0.835451 0.199343 0.267544
634 2 0.915419 0.507074 0.22595
129 1 0.821558 0.461269 0.283573
161 1 0.788578 0.35168 0.250488
620 2 0.0616613 0.664606 0.288978
609 2 0.120943 0.575948 0.260903
142 1 0.388527 0.65963 0.240573
624 2 0.301388 0.618784 0.270225
617 2 0.392194 0.491691 0.248408
146 1 0.459697 0.550962 0.277082
164 1 0.442602 0.705217 0.282112
67 1 0.547096 0.506777 0.249848
592 2 0.69148 0.49538 0.250852
115 1 0.589938 0.657069 0.260349
630 2 0.692078 0.594929 0.291763
169 1 0.000460276 0.656287 0.23588
629 2 0.861182 0.608898 0.256906
130 1 0.0670932 0.455867 0.296925
639 2 0.840249 0.69728 0.300563
120 1 0.105324 0.774305 0.255781
121 1 0.0427189 0.878748 0.273555
672 2 0.290823 0.870287 0.25553
247 1 0.149823 0.802629 0.291734
103 1 0.443469 0.852275 0.255419
153 1 0.334045 0.995039 0.272176
696 2 0.297687 0.785201 0.29273
131 1 0.556029 0.976417 0.255879
647 2 0.60273 0.826551 0.255955
625 2 0.727035 0.853092 0.282412
160 1 0.75413 0.730336 0.255372
588 2 0.868342 0.894526 0.259163
621 2 0.932652 0.740523 0.266883
175 1 1.00234 0.016805 0.314679
646 2 0.185816 0.213441 0.308484
680 2 0.162467 0.0630213 0.305347
185 1 0.0231716 0.18454 0.319315
197 1 0.45178 0.0956438 0.337546
183 1 0.465035 0.0236912 0.296304
706 2 0.309363 0.105994 0.353219
640 2 0.601947 0.105621 0.317377
627 2 0.718237 0.053367 0.340718
126 1 0.721818 0.173335 0.298965
662 2 0.683854 0.252782 0.345738
180 1 0.873006 0.247538 0.302285
679 2 0.85873 0.10243 0.321593
166 1 0.217309 0.378048 0.312567
106 1 0.167971 0.305999 0.345906
156 1 0.0907861 0.467563 0.334227
661 2 0.284431 0.511229 0.328053
201 1 0.337424 0.26923 0.339579
650 2 0.53504 0.264391 0.334515
167 1 0.463488 0.367813 0.358162
158 1 0.617315 0.399819 0.329902
584 2 0.917432 0.388215 0.315531
687 2 0.866799 0.30554 0.344465
699 2 0.746262 0.305126 0.313173
666 2 0.874688 0.535099 0.338373
641 2 0.169967 0.56535 0.304109
191 1 0.977609 0.655737 0.324376
207 1 0.148028 0.698619 0.324932
720 2 0.314708 0.673796 0.341999
168 1 0.449048 0.489249 0.316451
697 2 0.359752 0.621874 0.309467
194 1 0.742523 0.486844 0.317951
619 2 0.545036 0.622112 0.309626
148 1 0.559992 0.558077 0.353157
170 1 0.739358 0.61958 0.33574
649 2 0.9329 0.563616 0.289729
700 2 0.983752 0.854311 0.346185
231 1 0.124695 0.903025 0.319477
147 1 0.475256 0.841162 0.294455
177 1 0.302374 0.979049 0.315397
691 2 0.242644 0.809094 0.328715
673 2 0.452204 0.742741 0.325464
702 2 0.24033 0.922485 0.352154
178 1 0.431266 0.918262 0.324932
658 2 0.561502 0.977716 0.338318
628 2 0.748822 0.00708787 0.306695
154 1 0.625232 0.730098 0.293449
190 1 0.586882 0.936143 0.30076
195 1 0.613048 0.695267 0.333776
152 1 0.00597441 0.783572 0.308012
155 1 0.860734 0.862502 0.303398
655 2 0.692162 0.824718 0.322005
674 2 0.850519 0.731614 0.342273
182 1 0.147951 0.104096 0.338982
677 2 0.0777922 0.166123 0.369579
188 1 0.200623 0.0627709 0.376243
136 1 0.440355 0.196509 0.367299
238 1 0.473389 0.0134734 0.369148
736 2 0.272345 0.234661 0.375469
213 1 0.359345 0.0894124 0.39186
162 1 0.38925 0.229508 0.412479
678 2 0.58479 0.140287 0.360506
187 1 0.522778 0.150531 0.402634
698 2 0.695818 0.0554247 0.384801
686 2 0.671077 0.216697 0.384701
692 2 0.525189 0.305253 0.390204
133 1 0.785473 0.156845 0.361452
159 1 0.83395 0.0128718 0.367026
179 1 0.933402 0.137913 0.352005
657 2 0.287846 0.401378 0.360297
656 2 0.0128647 0.347986 0.354521
220 1 0.140311 0.448989 0.374219
186 1 0.0216229 0.477065 0.415822
710 2 0.129744 0.305049 0.388218
669 2 0.474719 0.365141 0.425489
132 1 0.354303 0.352983 0.394957
688 2 0.205625 0.477055 0.40597
143 1 0.581612 0.434488 0.378716
643 2 0.728577 0.434024 0.396659
718 2 0.638011 0.349367 0.41856
217 1 0.73746 0.405199 0.355084
244 1 0.87095 0.419745 0.417126
664 2 0.826503 0.308967 0.382464
165 1 0.971398 0.282856 0.38915
693 2 0.915826 0.428973 0.376068
199 1 0.144522 0.61322 0.354631
205 1 0.119745 0.772776 0.402041
645 2 0.248856 0.55274 0.376379
171 1 0.411269 0.542214 0.355723
631 2 0.460707 0.526898 0.391198
221 1 0.300433 0.69241 0.381552
725 2 0.501459 0.790022 0.3905
198 1 0.648124 0.652943 0.368864
173 1 0.557824 0.625312 0.404458
676 2 0.724211 0.772385 0.363496
223 1 0.462262 0.680781 0.364987
723 2 0.700098 0.589934 0.403183
196 1 0.0193779 0.741907 0.372539
216 1 0.949281 0.576854 0.373888
644 2 0.784815 0.539073 0.369844
275 1 0.904277 0.593988 0.418058
737 2 0.813084 0.678369 0.388911
246 1 0.980598 0.760538 0.415906
225 1 0.153256 0.805361 0.361556
682 2 0.0733825 0.97481 0.350851
660 2 0.0252182 0.882543 0.39038
236 1 0.145644 1.00004 0.410709
202 1 0.371727 0.803105 0.358575
232 1 0.379838 0.914932 0.385535
212 1 0.222085 0.88905 0.392118
174 1 0.655628 0.734694 0.40951
724 2 0.590654 0.840363 0.359681
719 2 0.711212 0.923829 0.36108
690 2 1.0004 0.0312597 0.384166
654 2 0.876483 0.960411 0.335548
200 1 0.848132 0.833783 0.389917
211 1 0.206001 0.166946 0.406979
181 1 0.0489 0.14801 0.408143
265 1 0.22988 0.219052 0.460577
735 2 0.188093 0.0468374 0.450179
235 1 0.326525 0.129312 0.437417
233 1 0.509853 0.0699255 0.44269
733 2 0.316289 0.0194423 0.472933
633 2 0.650459 0.00591407 0.420114
684 2 0.642504 0.0636187 0.467718
716 2 0.606988 0.218235 0.430293
705 2 0.746685 0.115609 0.437029
189 1 0.854466 0.145492 0.393019
715 2 0.937454 0.0906449 0.436649
184 1 0.0779241 0.353936 0.434164
192 1 0.0844108 0.425023 0.472314
296 1 0.138881 0.504379 0.442929
261 1 0.231214 0.296249 0.418956
242 1 0.335149 0.421797 0.433225
234 1 0.344858 0.343534 0.464106
239 1 0.515057 0.306189 0.460252
689 2 0.748181 0.350567 0.458155
721 2 0.629398 0.463839 0.448187
659 2 0.936399 0.275131 0.430612
240 1 0.760022 0.494577 0.432995
709 2 0.778636 0.270322 0.424812
215 1 0.843105 0.197564 0.463689
767 2 0.87761 0.451857 0.457493
203 1 0.120631 0.591482 0.400852
745 2 0.114703 0.689887 0.440164
222 1 0.0283295 0.567379 0.452876
741 2 0.272283 0.756132 0.424712
237 1 0.411002 0.658381 0.409156
722 2 0.479754 0.681769 0.442549
712 2 0.280713 0.588636 0.419786
779 2 0.442333 0.533939 0.435394
713 2 0.340428 0.718536 0.46207
193 1 0.580282 0.497412 0.415972
204 1 0.644169 0.645265 0.439686
663 2 0.816861 0.594682 0.465484
229 1 0.791211 0.683241 0.425877
206 1 0.948554 0.712094 0.452436
681 2 0.983192 0.929069 0.42933
755 2 0.0446679 0.827863 0.452265
746 2 0.181865 0.895932 0.437422
251 1 0.0378982 0.995479 0.458103
278 1 0.185695 0.773836 0.466057
214 1 0.426915 0.93314 0.445158
257 1 0.308661 0.974272 0.423194
707 2 0.419681 0.79472 0.422801
708 2 0.297139 0.873696 0.459336
208 1 0.52037 0.954689 0.4106
683 2 0.591258 0.901776 0.443083
228 1 0.705062 0.77521 0.446739
727 2 0.565231 0.79171 0.469612
717 2 0.764251 0.96274 0.446478
703 2 0.696001 0.882637 0.404115
209 1 0.843676 0.836136 0.433222
749 2 0.821775 -0.0012759 0.408866
321 1 0.0831113 0.147926 0.470409
284 1 0.208058 0.0682373 0.498661
290 1 0.0128061 0.0205282 0.529435
753 2 0.418955 0.141096 0.471905
264 1 0.495718 0.969926 0.479941
731 2 0.34676 0.0251695 0.515738
742 2 0.296722 0.240772 0.508236
734 2 0.571962 0.175602 0.477833
778 2 0.550322 0.23088 0.51827
804 2 0.711967 0.168571 0.499044
250 1 0.800829 0.0542457 0.485157
210 1 0.956803 0.123836 0.488799
260 1 0.867624 0.224424 0.505649
308 1 0.847695 0.0526608 0.525942
763 2 0.164059 0.296727 0.490421
711 2 0.0170462 0.27509 0.466513
272 1 0.162554 0.419629 0.509611
791 2 0.0237911 0.275519 0.505732
714 2 0.453021 0.457075 0.464344
732 2 0.208723 0.375577 0.452729
747 2 0.303859 0.393292 0.494207
738 2 0.430988 0.288392 0.492192
269 1 0.480653 0.419135 0.506762
739 2 0.627148 0.357011 0.48806
685 2 0.731063 0.479234 0.479555
230 1 0.769067 0.323573 0.525264
765 2 0.939943 0.4473 0.52508
740 2 0.86953 0.365507 0.492842
695 2 0.153749 0.61469 0.4761
762 2 0.0675075 0.550182 0.511265
267 1 0.262508 0.559573 0.517328
766 2 0.215546 0.717902 0.505434
701 2 0.0576739 0.704357 0.494201
754 2 0.110302 0.655073 0.537306
792 2 0.266327 0.511112 0.464212
218 1 0.461927 0.632827 0.477104
227 1 0.376953 0.673018 0.506732
249 1 0.386641 0.525978 0.494535
744 2 0.672866 0.510078 0.514286
694 2 0.60775 0.572417 0.475328
748 2 0.536012 0.599864 0.531335
300 1 0.578043 0.694393 0.502253
668 2 0.719879 0.718107 0.482269
262 1 0.937963 0.543661 0.479038
245 1 0.803839 0.56299 0.509934
314 1 0.93945 0.662125 0.516295
726 2 0.177766 0.927754 0.476595
793 2 0.126082 0.846173 0.515959
255 1 0.433572 0.843096 0.481504
752 2 0.294894 0.861639 0.502595
729 2 0.709613 0.996592 0.517062
279 1 0.56505 0.906161 0.510525
772 2 0.661924 0.91489 0.480862
774 2 0.871472 0.759351 0.496448
224 1 0.872633 0.895511 0.471362
243 1 0.829945 0.893089 0.514742
799 2 0.00800627 0.934521 0.493433
770 2 0.979534 0.836274 0.529256
704 2 0.70505 0.807417 0.512171
256 1 0.112181 0.953298 0.553161
757 2 0.148173 0.175746 0.520359
802 2 0.185069 0.0381579 0.587626
781 2 0.123334 0.161405 0.55912
287 1 0.244572 0.0844798 0.545487
310 1 0.311955 0.149454 0.583489
809 2 0.552414 0.118341 0.568199
289 1 0.420256 0.178939 0.551166
277 1 0.738445 0.131204 0.579337
824 2 0.625312 0.11612 0.537562
309 1 0.498486 0.050424 0.516787
759 2 0.767899 0.170545 0.534503
294 1 0.867071 0.168111 0.559578
789 2 0.791181 0.0165814 0.559557
280 1 0.974295 0.16415 0.535646
281 1 1.00229 0.0511119 0.571535
788 2 0.161824 0.300124 0.585089
298 1 0.275562 0.40677 0.577988
286 1 0.0382533 0.285465 0.548682
295 1 0.217623 0.405414 0.542127
315 1 0.0443525 0.476375 0.553248
259 1 0.410727 0.333653 0.533698
728 2 0.261586 0.255855 0.556049
764 2 0.405053 0.30582 0.573829
285 1 0.540214 0.391108 0.558668
263 1 0.434051 0.49637 0.537165
219 1 0.629622 0.390076 0.530891
761 2 0.734409 0.323006 0.566238
270 1 0.603226 0.253956 0.567879
794 2 0.613757 0.355683 0.597212
845 2 0.728651 0.453942 0.590355
790 2 0.919651 0.385981 0.56364
299 1 0.178298 0.555343 0.562731
797 2 0.0613688 0.668217 0.578238
775 2 0.254055 0.691679 0.564185
293 1 0.441655 0.455116 0.581637
769 2 0.391912 0.600146 0.572825
366 1 0.66028 0.548032 0.552985
254 1 0.768435 0.678757 0.532984
288 1 0.558798 0.645889 0.574553
273 1 0.891513 0.567116 0.544682
274 1 0.783531 0.455633 0.546668
241 1 0.842363 0.556906 0.583869
297 1 0.889814 0.749541 0.582821
350 1 0.711804 0.677626 0.571761
780 2 0.23152 0.945653 0.526875
751 2 0.140036 0.779253 0.551552
798 2 0.29366 0.774501 0.533175
796 2 0.231861 0.886714 0.567665
266 1 0.415808 0.88672 0.527645
743 2 0.367722 0.823834 0.567098
258 1 0.428203 0.699765 0.544077
348 1 0.48651 0.00463433 0.552156
823 2 0.688274 0.858282 0.551054
322 1 0.581082 0.754551 0.537363
282 1 0.636737 0.988561 0.570687
777 2 0.520948 0.836529 0.565743
306 1 0.832879 0.789081 0.547378
730 2 0.916246 0.918464 0.554399
785 2 0.969746 0.706301 0.551106
302 1 0.0552895 0.162813 0.609428
771 2 0.218514 0.121081 0.619003
760 2 0.360439 1.00563 0.579921
372 1 0.384749 0.151459 0.614864
374 1 0.622655 0.121853 0.615564
301 1 0.766707 0.129817 0.631846
311 1 0.759813 0.270999 0.601016
784 2 0.906282 0.138619 0.599198
776 2 0.00640825 0.269849 0.583309
305 1 0.805801 0.289886 0.652366
291 1 0.0646698 0.329977 0.624628
349 1 0.111128 0.457669 0.588099
292 1 0.252365 0.409465 0.618288
782 2 0.205096 0.266759 0.645951
248 1 0.434298 0.404973 0.625617
832 2 0.306024 0.268816 0.608872
268 1 0.514007 0.236407 0.598762
834 2 0.359178 0.322923 0.659541
342 1 0.520262 0.422956 0.65758
320 1 0.807991 0.394668 0.621889
335 1 0.640813 0.265416 0.634814
319 1 0.483513 0.262551 0.635889
817 2 0.93198 0.253236 0.620819
313 1 0.792537 0.549809 0.625895
331 1 0.939224 0.39565 0.602973
816 2 0.824178 0.464599 0.656229
811 2 0.963718 0.551424 0.602922
341 1 0.284928 0.570907 0.599825
814 2 0.144253 0.61772 0.61215
357 1 0.103835 0.485642 0.626801
328 1 0.392637 0.595745 0.630957
253 1 0.355257 0.727303 0.5966
226 1 0.560328 0.508189 0.605091
750 2 0.677386 0.620835 0.618691
768 2 0.530329 0.629455 0.622872
303 1 0.646853 0.462563 0.642475
325 1 0.628774 0.788292 0.642728
795 2 0.0162491 0.704189 0.617036
825 2 0.839354 0.684016 0.616288
840 2 0.958729 0.553909 0.640254
850 2 0.0918548 0.00331274 0.619243
800 2 0.0498617 0.883407 0.5808
822 2 0.0634961 0.863473 0.621206
368 1 0.288803 0.799264 0.627429
252 1 0.226433 0.903716 0.603743
756 2 0.325708 0.00749571 0.630957
283 1 0.182678 0.754419 0.593312
326 1 0.497969 0.0241543 0.62447
842 2 0.396548 0.909693 0.612028
783 2 0.66062 0.813463 0.588485
758 2 0.590338 0.941476 0.604287
818 2 0.515758 0.797012 0.609219
324 1 0.628686 0.957873 0.642421
803 2 0.525203 0.0812236 0.665101
808 2 0.788372 0.976119 0.594708
843 2 0.766681 0.840556 0.621621
865 2 0.93523 0.943997 0.604838
849 2 0.8379 0.990661 0.632731
355 1 0.911115 0.818732 0.637664
347 1 0.136528 0.0627468 0.651189
332 1 0.0156086 0.132137 0.676584
829 2 0.172591 0.116062 0.686448
807 2 0.0557416 0.207798 0.64709
787 2 0.328661 0.11897 0.658657
833 2 0.376138 0.0782585 0.693918
333 1 0.465102 0.208813 0.669868
827 2 0.632621 0.0696695 0.703732
304 1 0.707279 0.0140799 0.674411
330 1 0.510834 0.20144 0.70602
376 1 0.665787 0.164164 0.667133
390 1 0.673091 0.223123 0.7034
810 2 0.922685 0.114025 0.639744
846 2 0.829106 0.150659 0.674152
377 1 0.957686 0.282192 0.672415
812 2 0.214742 0.445883 0.658877
861 2 0.0485228 0.434513 0.665812
416 1 0.148989 0.313832 0.683463
424 1 0.0983481 0.42505 0.704172
323 1 0.303257 0.232691 0.683351
338 1 0.482012 0.350616 0.68861
851 2 0.315394 0.429226 0.690314
365 1 0.660361 0.365042 0.666231
364 1 0.526926 0.49416 0.694406
339 1 0.612032 0.366564 0.703527
773 2 0.695187 0.494576 0.690984
871 2 0.792101 0.36343 0.69726
801 2 0.286515 0.657291 0.646504
387 1 0.259586 0.577994 0.68197
891 2 0.154643 0.595794 0.653169
317 1 0.427435 0.747756 0.641731
862 2 0.40013 0.51377 0.666753
900 2 0.407671 0.677666 0.676838
847 2 0.549835 0.663258 0.666237
340 1 0.603487 0.625161 0.701069
343 1 0.661043 0.76596 0.681654
813 2 0.723599 0.598194 0.66137
848 2 0.942029 0.552553 0.684138
838 2 0.786885 0.621205 0.70163
839 2 0.817596 0.723145 0.658148
860 2 0.981141 0.701277 0.659696
271 1 0.996365 0.980906 0.656357
867 2 0.318455 0.853072 0.667653
821 2 0.201115 0.917235 0.642006
815 2 0.183548 0.770696 0.657264
855 2 0.988914 0.853186 0.687222
396 1 0.110054 0.97034 0.694119
820 2 0.275728 0.000928739 0.677487
276 1 0.557568 0.959185 0.687538
346 1 0.423395 0.975416 0.663079
874 2 0.410356 0.875704 0.703855
826 2 0.738873 0.874632 0.663389
358 1 0.693488 0.897321 0.70455
819 2 0.525133 0.830449 0.664806
423 1 0.812341 0.801279 0.696582
864 2 0.853209 0.987721 0.683589
805 2 0.203198 0.992831 0.718326
881 2 0.141343 0.0440598 0.762293
830 2 0.0634771 0.194646 0.744137
786 2 0.241328 0.114111 0.735687
854 2 0.313657 0.0782167 0.770444
353 1 0.402483 0.151584 0.727243
835 2 0.328684 0.293824 0.721386
329 1 0.624032 0.184842 0.738749
869 2 0.725625 0.0510765 0.731916
853 2 0.812811 0.180254 0.715037
352 1 0.911967 0.0799247 0.707756
863 2 0.983115 0.221708 0.708226
384 1 0.0366003 -0.000538698 0.726216
879 2 0.871921 0.0681156 0.75509
857 2 0.247055 0.424122 0.721747
876 2 0.133505 0.211608 0.711061
828 2 0.186427 0.414281 0.757016
361 1 0.00670836 0.349583 0.730216
359 1 0.40431 0.461694 0.730186
307 1 0.394806 0.335333 0.753989
837 2 0.525069 0.348283 0.732762
844 2 0.638541 0.517668 0.728647
889 2 0.506718 0.464913 0.757245
414 1 0.640356 0.355438 0.76602
345 1 0.93141 0.410978 0.699244
859 2 0.739627 0.402447 0.737067
930 2 0.755271 0.207226 0.755192
385 1 0.862249 0.33272 0.745535
410 1 0.0366843 0.455308 0.759435
836 2 0.141161 0.663833 0.689286
386 1 0.0160712 0.548579 0.720797
362 1 0.212982 0.567593 0.725532
312 1 0.168609 0.590821 0.77035
408 1 0.29667 0.521398 0.751663
373 1 0.3865 0.591184 0.708618
367 1 0.255881 0.696421 0.752332
873 2 0.484281 0.722041 0.711403
360 1 0.48974 0.589771 0.735137
898 2 0.790398 0.624363 0.754155
375 1 0.637635 0.622713 0.756735
875 2 0.932687 0.679476 0.707363
370 1 0.853787 0.531689 0.724
473 1 0.949031 0.62656 0.747992
841 2 0.185642 0.837256 0.694707
896 2 0.101887 0.693421 0.723394
877 2 0.113828 0.820616 0.741589
872 2 0.354749 0.00284137 0.735684
831 2 0.281331 0.721047 0.70196
318 1 0.411398 0.764316 0.738219
371 1 0.254604 0.857631 0.737233
886 2 0.459252 0.954499 0.762846
897 2 0.389117 0.786333 0.776406
316 1 0.518325 0.0214809 0.732706
334 1 0.641137 0.942998 0.749896
430 1 0.546497 0.751783 0.751699
327 1 0.538461 0.875338 0.724612
909 2 0.668916 0.745683 0.723451
404 1 0.773006 0.858102 0.73821
398 1 0.943772 0.775849 0.734255
356 1 0.918991 0.896743 0.758333
379 1 0.896896 0.916222 0.716693
413 1 0.225659 0.16759 0.791816
412 1 0.313266 0.172399 0.829154
921 2 0.0210039 0.0468279 0.82646
369 1 0.378083 0.255869 0.792077
941 2 0.426946 0.0565768 0.793253
924 2 0.495899 0.194154 0.759313
389 1 0.735959 0.0201146 0.770548
882 2 0.570682 0.0692154 0.767374
382 1 0.527316 0.979325 0.818342
920 2 0.561877 0.13246 0.812452
892 2 0.611677 0.22648 0.780616
880 2 0.968954 0.0137761 0.786114
922 2 0.805848 0.143252 0.798839
990 2 0.906961 0.202512 0.771967
806 2 0.0909517 0.296764 0.779702
393 1 0.216516 0.272578 0.756102
910 2 0.240813 0.297808 0.85109
932 2 0.0440351 0.197919 0.801756
363 1 0.235113 0.324826 0.791912
441 1 0.080797 0.471883 0.800592
443 1 0.379036 0.425446 0.79638
984 2 0.370534 0.363413 0.833518
460 1 0.761251 0.310299 0.789962
884 2 0.516475 0.365378 0.789742
391 1 0.667754 0.46587 0.805747
449 1 0.730925 0.473059 0.769883
381 1 0.853175 0.476715 0.798803
351 1 0.945195 0.359194 0.780538
964 2 0.886596 0.249484 0.815528
944 2 0.945216 0.488712 0.829167
344 1 0.0254891 0.72448 0.770576
401 1 0.253238 0.679116 0.814995
912 2 0.0844098 0.650928 0.800905
400 1 0.394877 0.632089 0.767423
858 2 0.280208 0.566277 0.790825
917 2 0.395112 0.715326 0.81387
915 2 0.394846 0.562515 0.818258
887 2 0.529916 0.515754 0.794054
422 1 0.724308 0.631241 0.79484
337 1 0.539287 0.69387 0.796083
972 2 0.71984 0.777429 0.765509
893 2 0.888931 0.484749 0.762983
411 1 0.92751 0.631101 0.792635
856 2 0.836729 0.654449 0.825268
406 1 0.0430635 0.873922 0.788675
942 2 0.301178 0.839601 0.811912
392 1 0.169133 0.79836 0.776044
916 2 0.143876 0.972318 0.804319
911 2 0.149314 0.781864 0.818502
852 2 0.287272 0.932792 0.776437
383 1 0.440316 0.893572 0.798694
895 2 0.690034 0.0147542 0.806087
397 1 0.627552 0.896779 0.792448
354 1 0.800035 0.896871 0.786204
899 2 0.881595 0.76733 0.773226
885 2 0.915044 0.779785 0.808135
421 1 0.7479 0.904885 0.827297
378 1 0.158816 0.163597 0.829322
388 1 0.248196 0.117515 0.867646
457 1 0.100173 0.0921685 0.860448
476 1 0.285983 0.0053622 0.824479
380 1 0.390354 0.0428352 0.851414
440 1 0.381734 0.239636 0.861648
403 1 0.275577 0.941464 0.874954
928 2 0.45087 0.0655949 0.884675
429 1 0.496382 0.267503 0.827986
949 2 0.502127 0.148624 0.852738
399 1 0.647005 0.0603677 0.841707
425 1 0.846035 0.0604189 0.830018
499 1 0.868983 0.181401 0.853362
976 2 0.711172 0.215847 0.82873
955 2 0.00708531 0.202646 0.841539
953 2 0.726474 0.169048 0.870564
431 1 0.0662325 0.31918 0.82023
878 2 0.0996002 0.302579 0.86272
445 1 0.393074 0.470937 0.859877
418 1 0.241463 0.379601 0.884461
462 1 0.589904 0.296906 0.854241
405 1 0.645784 0.331812 0.818244
975 2 0.675447 0.324168 0.885503
935 2 0.547604 0.458568 0.838183
394 1 0.687119 0.424702 0.849318
417 1 0.787999 0.311144 0.848653
435 1 0.962746 0.395359 0.860333
913 2 0.138925 0.633195 0.838018
940 2 0.0998657 0.455411 0.85334
937 2 0.246724 0.505159 0.864295
22 1 0.0933492 0.769958 0.854443
943 2 0.343388 0.621945 0.854872
866 2 0.473196 0.727588 0.848829
901 2 0.216988 0.460549 0.817637
939 2 0.515861 0.600538 0.865881
933 2 0.616602 0.612252 0.829797
870 2 0.704069 0.758941 0.820442
931 2 0.665597 0.557731 0.872079
497 1 0.992576 0.649214 0.832829
883 2 0.787218 0.50899 0.832636
890 2 0.813237 0.609632 0.859781
336 1 0.801878 0.75936 0.857981
452 1 0.227363 0.868884 0.845926
968 2 0.122445 0.963309 0.875825
428 1 0.046031 0.89964 0.837274
434 1 0.422142 0.855287 0.834597
923 2 0.595712 0.73139 0.871367
919 2 0.565421 0.829677 0.825574
481 1 0.512738 0.95574 0.86072
868 2 0.651039 0.87595 0.855697
420 1 0.9122 0.930726 0.815433
451 1 0.806127 0.909278 0.8626
453 1 0.940226 0.0107846 0.866421
469 1 0.929878 0.811471 0.846927
995 2 0.152555 0.0847333 0.899014
996 2 0.00971444 0.283737 0.928318
446 1 0.246936 0.122097 0.927231
954 2 0.00417922 0.217194 0.888835
934 2 0.345218 0.195737 0.901383
908 2 0.532508 0.20565 0.892007
493 1 0.444472 0.218078 0.928304
904 2 0.595148 0.0787601 0.88872
2 1 0.551586 0.117098 0.930389
427 1 0.458649 -0.00370529 0.929536
484 1 0.739479 0.0953114 0.933214
888 2 0.835369 0.260752 0.890956
479 1 0.0178016 0.0987746 0.9134
75 1 0.847824 0.067925 0.893995
426 1 0.0827656 0.369779 0.897256
483 1 0.175045 0.24954 0.905826
25 1 0.161877 0.375794 0.934432
436 1 0.305385 0.373387 0.917806
974 2 0.412107 0.340023 0.892236
32 1 0.257461 0.278204 0.952536
960 2 0.538385 0.446168 0.875449
409 1 0.695394 0.24731 0.916039
965 2 0.534549 0.327238 0.917948
415 1 0.687678 0.477963 0.90457
966 2 0.798755 0.442845 0.877359
480 1 0.856854 0.216783 0.924927
983 2 0.919361 0.384264 0.899163
465 1 0.815071 0.369496 0.926105