ITEM: TIMESTEP
7570
ITEM: NUMBER OF ATOMS
1000
ITEM: BOX BOUNDS pp pp pp
0.0000000000000000e+00 6.2996052494743662e+00
0.0000000000000000e+00 6.2996052494743662e+00
0.0000000000000000e+00 2.5198420997897465e+01
ITEM: ATOMS id type xs ys zs
11 1 0.0740746 0.0844792 0.040265
80 1 0.0876898 0.0736873 0.0947921
486 1 0.0305937 0.254398 0.992791
528 2 0.051459 0.234659 0.0404974
985 2 0.190496 0.145349 0.0562188
489 1 0.396078 0.202774 0.0377884
482 1 0.365312 0.0894694 0.00730969
980 2 0.518262 0.226057 0.0118291
12 1 0.579087 0.000389417 0.055982
927 2 0.354369 0.264876 0.0023518
522 2 0.596494 0.0685609 0.963609
512 2 0.641748 0.0878747 0.0281689
529 2 0.825618 0.192935 0.0320482
504 2 0.730247 0.0492322 0.998106
534 2 0.739058 -0.000288317 0.04262
477 1 0.90029 0.0585324 0.0358087
51 1 0.0344179 0.378648 0.971818
61 1 0.0794129 0.378485 0.0169089
510 2 0.211497 0.343168 0.987734
963 2 0.193285 0.225578 0.019586
517 2 0.223644 0.415506 0.0210927
957 2 0.322718 0.343451 0.0408849
49 1 0.242446 0.513248 0.990136
63 1 0.453922 0.334129 0.0576233
999 2 0.470241 0.3639 0.016973
558 2 0.626292 0.412581 0.0399203
574 2 0.747039 0.365492 0.981183
977 2 0.934533 0.371086 0.0134866
508 2 0.828333 0.486794 0.9921
506 2 0.791615 0.365059 0.0257291
545 2 0.00786231 0.50902 0.0413523
520 2 0.960005 0.679221 0.0296804
488 1 0.10699 0.54181 0.00420024
33 1 0.469373 0.527232 0.0162581
43 1 0.480267 0.657116 0.0449702
18 1 0.344851 0.522445 0.0440155
3 1 0.425327 0.765352 0.99271
962 2 0.229417 0.592371 0.0276045
514 2 0.429476 0.564463 0.981834
516 2 0.589373 0.717124 0.0633281
24 1 0.638428 0.573734 0.0159043
524 2 0.58482 0.560994 0.0546618
17 1 0.672226 0.747473 0.025641
549 2 0.736498 0.68624 0.0549885
485 1 0.743176 0.54865 0.0465796
15 1 0.884759 0.601642 0.0677468
961 2 0.868946 0.500272 0.0301846
6 1 0.810226 0.645224 0.00559275
1 1 0.0044745 0.976325 0.0577123
982 2 0.044314 0.972403 0.0128779
967 2 0.121132 0.874049 0.0467206
13 1 0.281626 0.0268193 0.0379465
951 2 0.211541 0.852009 0.0177318
997 2 0.353545 0.745555 0.0321713
9 1 0.516555 0.80849 0.0301666
8 1 0.530794 0.0836294 0.998324
498 1 0.635452 0.853348 0.0527794
507 2 0.954669 0.853662 0.0293037
5 1 0.868002 0.956401 0.00694317
575 2 0.869331 0.962155 0.0721065
95 1 0.810344 0.83245 0.0484244
35 1 0.00493425 0.247203 0.0739369
555 2 0.13413 0.0536919 0.129231
44 1 0.0321999 0.940667 0.0981612
52 1 0.316155 0.106635 0.0924245
551 2 0.446564 0.111152 0.112379
573 2 0.743381 0.142593 0.0724237
56 1 0.429202 0.247024 0.0917391
526 2 0.544678 0.189552 0.0496367
28 1 0.451932 0.0472233 0.0754103
27 1 0.722203 0.980646 0.0815058
503 2 0.678569 0.23089 0.103761
34 1 0.847 0.181448 0.0980982
71 1 0.930114 0.108482 0.0725873
981 2 0.974967 0.389886 0.0629945
40 1 0.0107736 0.524696 0.0885436
532 2 0.176083 0.324258 0.0546753
89 1 0.0102814 0.345204 0.109521
86 1 0.206729 0.507009 0.0606367
85 1 0.153298 0.452667 0.0994692
7 1 0.305671 0.236983 0.0684255
65 1 0.316847 0.418202 0.0758305
556 2 0.409774 0.431894 0.109286
73 1 0.726712 0.328909 0.0595105
538 2 0.518816 0.444037 0.0844558
527 2 0.54761 0.287224 0.120419
50 1 0.695347 0.463497 0.0767948
487 1 0.873686 0.291412 0.0547269
511 2 0.841723 0.445852 0.0669512
533 2 0.818713 0.363485 0.096849
78 1 0.573108 0.302374 0.080316
70 1 0.0597266 0.637239 0.0592306
21 1 0.192688 0.743884 0.0470221
39 1 0.158472 0.626942 0.0884813
525 2 0.332123 0.663718 0.0650459
42 1 0.285132 0.532577 0.110399
550 2 0.43179 0.560989 0.0787367
23 1 0.426139 0.787847 0.0650451
523 2 0.566497 0.599182 0.0929823
998 2 0.680313 0.583384 0.115932
509 2 0.863132 0.520085 0.0993294
559 2 0.804631 0.660389 0.0936728
10 1 0.981822 0.670251 0.0986825
530 2 0.944555 0.836786 0.0948978
540 2 0.0839011 0.726819 0.117135
502 2 0.0915148 0.782444 0.07608
101 1 0.226072 0.99637 0.0816004
36 1 0.425522 0.949619 0.0480187
37 1 0.28496 0.888775 0.0573626
546 2 0.261701 0.775185 0.0847927
57 1 0.355925 0.878936 0.101102
98 1 0.293617 0.999286 0.131257
548 2 0.647645 0.789223 0.0905438
48 1 0.524322 0.902728 0.0865014
74 1 0.630827 0.930652 0.12066
100 1 0.946954 0.764871 0.0611599
565 2 0.884645 0.0173445 0.11311
96 1 0.790515 0.867812 0.0945358
59 1 0.984159 0.144791 0.113907
26 1 0.0847912 0.201809 0.143064
81 1 0.0761483 0.0890951 0.205239
580 2 0.0360669 0.323165 0.161104
82 1 0.263938 0.183442 0.135976
93 1 0.414337 0.0302818 0.156868
128 1 0.302066 0.197562 0.181208
53 1 0.56245 0.0416645 0.154916
552 2 0.577248 0.110665 0.0902221
125 1 0.621435 0.209256 0.153366
576 2 0.966666 0.0761717 0.145174
554 2 0.807071 0.126215 0.13555
41 1 0.0931511 0.435891 0.144366
598 2 0.160293 0.290041 0.105644
581 2 0.21821 0.304073 0.153481
99 1 0.893721 0.333709 0.140718
77 1 0.292935 0.300507 0.112502
87 1 0.412816 0.241253 0.143596
561 2 0.406573 0.428639 0.143757
590 2 0.246722 0.418982 0.136878
547 2 0.536356 0.498372 0.133574
583 2 0.469824 0.179683 0.17923
62 1 0.610623 0.374051 0.149602
531 2 0.647707 0.410588 0.113802
14 1 0.931198 0.486907 0.130676
92 1 0.754199 0.278605 0.137925
519 2 0.793521 0.457457 0.146912
553 2 0.00641001 0.530455 0.177386
64 1 0.126926 0.584961 0.12749
595 2 0.16185 0.725015 0.167466
542 2 0.381326 0.695953 0.108485
564 2 0.271355 0.676172 0.139866
38 1 0.425461 0.600606 0.146345
91 1 0.271598 0.546739 0.161074
562 2 0.708608 0.612927 0.152235
537 2 0.550789 0.666969 0.132622
543 2 0.688907 0.744286 0.124576
116 1 0.572738 0.534406 0.176855
139 1 0.684903 0.74889 0.169522
513 2 0.867774 0.767077 0.123262
66 1 -0.000661331 0.644729 0.143515
88 1 0.848161 0.622171 0.130945
541 2 0.154496 0.950931 0.154704
560 2 0.164557 0.885721 0.109937
566 2 0.200371 0.0891213 0.167917
587 2 0.0242329 0.7991 0.155621
97 1 0.252753 0.830369 0.135322
571 2 0.529716 0.799479 0.116535
567 2 0.310954 0.920845 0.166703
596 2 0.407791 0.792569 0.145568
83 1 0.491024 0.976965 0.127784
577 2 0.720635 0.0418142 0.156322
572 2 0.683862 0.908207 0.166458
69 1 0.936614 0.920086 0.145417
600 2 0.678608 0.0728164 0.119762
539 2 0.775849 0.921453 0.132918
76 1 0.927264 0.217231 0.203805
602 2 0.232713 0.223445 0.243421
601 2 0.138007 0.242578 0.184342
102 1 0.214418 0.142135 0.210173
603 2 0.316213 0.0317046 0.21403
157 1 0.482079 0.107966 0.213805
578 2 0.50117 0.976415 0.187467
134 1 0.63477 0.0520393 0.234648
599 2 0.617289 0.253046 0.195087
60 1 0.920561 0.20439 0.15773
68 1 0.791671 0.12911 0.177761
605 2 0.942174 0.0838081 0.1864
579 2 0.751119 0.222481 0.213231
535 2 0.19087 0.431505 0.182061
585 2 0.046492 0.357961 0.196721
107 1 0.239367 0.312712 0.201841
582 2 0.215621 0.437501 0.226831
150 1 0.0542945 0.250407 0.232972
610 2 0.345405 0.349658 0.17204
611 2 0.476795 0.28458 0.21043
607 2 0.352211 0.417345 0.214232
632 2 0.407654 0.508928 0.180067
142 1 0.475681 0.427323 0.237159
79 1 0.750814 0.317166 0.17868
112 1 0.497996 0.326564 0.175011
557 2 0.736608 0.493824 0.191204
586 2 0.581343 0.403231 0.205738
638 2 0.647891 0.25815 0.237884
54 1 0.908392 0.410592 0.179724
604 2 0.715382 0.404506 0.228551
84 1 0.990085 0.502354 0.212718
609 2 0.840754 0.510535 0.215273
120 1 0.0644418 0.738763 0.195363
122 1 0.335029 0.67932 0.176653
111 1 0.142582 0.588567 0.186866
591 2 0.211992 0.724959 0.208594
146 1 0.0939473 0.620657 0.229459
570 2 0.497952 0.663449 0.181257
141 1 0.278699 0.599294 0.228084
72 1 0.39633 0.708499 0.216469
608 2 0.502221 0.554168 0.213189
589 2 0.747607 0.670479 0.204574
592 2 0.680941 0.729474 0.234297
67 1 0.593599 0.702427 0.207359
90 1 0.867932 0.750465 0.162673
94 1 0.839329 0.618629 0.175914
639 2 0.823988 0.66147 0.244566
615 2 0.924902 0.660187 0.208731
588 2 0.0280183 0.934646 0.216214
117 1 0.17572 0.969698 0.21141
105 1 0.0332764 0.970952 0.174112
108 1 0.16779 0.861126 0.183167
622 2 0.417447 0.860057 0.205604
127 1 0.494326 0.976053 0.233633
597 2 0.536085 0.802645 0.16993
568 2 0.630747 0.874241 0.20937
536 2 0.613652 0.103478 0.19856
144 1 0.730515 0.0199037 0.203576
113 1 0.771044 0.847533 0.198399
55 1 0.832009 0.958338 0.170367
563 2 0.941119 0.83089 0.190164
594 2 0.886597 0.796751 0.226166
569 2 0.887216 0.950196 0.209535
650 2 0.108757 0.281597 0.282683
151 1 0.050353 0.139706 0.265602
667 2 0.20118 0.0372649 0.247382
626 2 0.349743 0.184553 0.219841
153 1 0.340024 0.98752 0.257103
177 1 0.361644 0.150689 0.259214
647 2 0.523933 0.142966 0.247757
131 1 0.673431 0.240492 0.278115
160 1 0.647834 0.067174 0.277785
110 1 0.955939 0.0919978 0.229667
124 1 0.777363 0.112415 0.237148
623 2 0.894935 0.194178 0.250341
175 1 0.797226 0.170786 0.279889
621 2 0.92227 0.0685268 0.275079
106 1 0.126823 0.437253 0.285878
140 1 0.0552442 0.428494 0.239877
136 1 0.252719 0.342951 0.322068
606 2 0.267159 0.372448 0.258132
637 2 0.438964 0.420857 0.278556
137 1 0.439379 0.284986 0.248659
634 2 0.606235 0.451476 0.257388
119 1 0.683427 0.388395 0.290023
109 1 0.774923 0.281712 0.252516
135 1 0.838873 0.436001 0.259133
619 2 0.575957 0.534178 0.28757
138 1 0.548534 0.340508 0.276331
172 1 0.967874 0.219053 0.299194
671 2 0.878534 0.326071 0.227073
640 2 0.856737 0.320231 0.294324
145 1 0.974078 0.367598 0.263972
616 2 0.240132 0.704334 0.250399
636 2 0.182959 0.538155 0.256628
166 1 0.0454403 0.551007 0.279293
121 1 0.983437 0.709479 0.247743
613 2 0.37895 0.712505 0.263255
617 2 0.341948 0.505733 0.252988
612 2 0.30529 0.467828 0.287743
148 1 0.432195 0.579626 0.284786
114 1 0.561081 0.588494 0.246545
635 2 0.702042 0.555567 0.229539
665 2 0.683384 0.643363 0.265716
624 2 0.534101 0.686694 0.279647
104 1 0.921039 0.554033 0.252056
123 1 0.784208 0.798809 0.26029
115 1 0.870495 0.625508 0.284844
130 1 0.799155 0.687465 0.31936
152 1 0.032685 0.973781 0.260541
672 2 0.11212 0.866042 0.243728
593 2 0.488272 0.798252 0.243443
642 2 0.25675 0.814848 0.273125
147 1 0.331721 0.972901 0.300206
163 1 0.297185 0.854883 0.2328
118 1 0.437457 0.865933 0.282453
676 2 0.532204 0.760386 0.319152
103 1 0.50389 0.00306975 0.271489
670 2 0.626036 0.886773 0.251588
614 2 0.761919 0.939629 0.239505
155 1 0.755934 0.906057 0.283849
625 2 0.900442 0.919635 0.258673
651 2 0.184607 0.0731307 0.318262
197 1 0.214402 0.135294 0.275965
627 2 0.54097 0.187521 0.283925
662 2 0.267333 0.190893 0.322548
190 1 0.446703 0.15363 0.344664
183 1 0.406385 0.159594 0.305668
653 2 0.565672 0.259732 0.315362
655 2 0.606318 0.0794929 0.322594
126 1 0.752539 0.242344 0.318149
628 2 0.542122 0.039441 0.364464
180 1 0.760367 0.0620479 0.311311
182 1 0.995724 0.102504 0.335246
675 2 0.0623347 0.0792797 0.300358
680 2 0.856309 0.11697 0.351325
646 2 0.904548 0.0442087 0.311101
187 1 0.121912 0.24515 0.321063
661 2 0.107425 0.526786 0.317922
133 1 0.417941 0.300304 0.316729
158 1 0.32029 0.276567 0.288067
132 1 0.189101 0.337198 0.355897
143 1 0.410214 0.455928 0.32021
633 2 0.473501 0.308421 0.356115
643 2 0.555159 0.406608 0.314154
159 1 0.631901 0.264518 0.34855
664 2 0.624078 0.471851 0.340968
652 2 0.935543 0.249032 0.333142
185 1 0.789974 0.252313 0.357328
156 1 0.0268129 0.376849 0.324223
161 1 0.786452 0.436892 0.320646
666 2 0.935921 0.548458 0.33529
641 2 0.150468 0.665603 0.292941
167 1 0.310307 0.57953 0.313994
168 1 0.381718 0.701173 0.332023
169 1 0.693159 0.557982 0.313491
644 2 0.617904 0.639072 0.341766
170 1 0.489381 0.598308 0.320483
584 2 0.910742 0.482972 0.296084
618 2 0.0100683 0.644174 0.308111
620 2 0.924694 0.766029 0.280422
191 1 0.940173 0.743304 0.328601
649 2 0.975326 0.914139 0.296567
696 2 0.286267 0.719411 0.304426
648 2 0.0948998 0.796897 0.28364
171 1 0.0829499 0.773163 0.321591
201 1 0.15269 0.972138 0.281439
176 1 0.0697104 0.967115 0.323349
231 1 0.189925 0.89606 0.313304
198 1 0.446571 0.830931 0.372489
697 2 0.406641 0.863037 0.325679
673 2 0.477138 0.0120878 0.305972
154 1 0.405725 0.969569 0.354011
630 2 0.601284 0.902281 0.288304
164 1 0.672988 0.962828 0.339467
129 1 0.665986 0.718571 0.303167
149 1 0.535916 0.934912 0.333092
674 2 0.766292 0.762711 0.357139
629 2 0.764441 0.86008 0.326266
657 2 0.134554 0.181594 0.356437
212 1 0.0540309 0.0806134 0.406413
682 2 0.172808 0.153325 0.392005
687 2 0.0447852 0.301042 0.358168
188 1 0.413836 0.129548 0.387592
678 2 0.275222 0.209608 0.371138
706 2 0.308659 0.0915452 0.347858
658 2 0.29926 0.0481925 0.387673
707 2 0.305649 0.15375 0.416455
165 1 0.565899 0.165139 0.376427
179 1 0.650732 0.0996927 0.429423
679 2 0.691984 0.109934 0.363964
677 2 0.948604 0.180423 0.380863
660 2 0.852237 0.00034574 0.410859
654 2 0.825314 0.969377 0.360659
631 2 0.202419 0.493293 0.347326
192 1 0.0375444 0.473083 0.361818
686 2 0.276272 0.518086 0.389659
688 2 0.132177 0.413064 0.387888
217 1 0.348945 0.418449 0.355497
683 2 0.422707 0.308024 0.393186
717 2 0.493695 0.459874 0.392785
184 1 0.722619 0.320822 0.412988
189 1 0.602206 0.343932 0.380239
699 2 0.876791 0.402443 0.360566
710 2 0.975262 0.410232 0.400958
656 2 0.852898 0.296273 0.389936
669 2 0.745486 0.423208 0.382476
691 2 0.21714 0.685768 0.342061
220 1 0.143666 0.562495 0.375942
203 1 0.214845 0.65768 0.405179
692 2 0.483007 0.500738 0.358154
721 2 0.409703 0.598175 0.401304
162 1 0.341178 0.581321 0.358988
173 1 0.48014 0.670891 0.363478
223 1 0.345307 0.714698 0.375446
195 1 0.602057 0.787564 0.362342
663 2 0.607941 0.547921 0.376768
244 1 0.764395 0.532309 0.354708
645 2 0.067849 0.649379 0.346943
216 1 0.0090288 0.764936 0.366377
186 1 0.89957 0.53213 0.388367
199 1 0.894533 0.658152 0.358942
200 1 0.93031 0.668671 0.404683
207 1 0.175069 0.0238334 0.360279
247 1 0.101574 0.889353 0.356911
720 2 0.19068 0.776778 0.379336
178 1 0.268292 0.847748 0.345693
698 2 0.451451 0.967944 0.397099
202 1 0.304546 0.88923 0.388868
193 1 0.493843 0.726821 0.39924
174 1 0.585519 0.84544 0.400143
703 2 0.620005 0.00758338 0.401696
194 1 0.715443 0.711766 0.391702
700 2 0.959436 0.0135748 0.375224
196 1 0.930844 0.915744 0.337416
221 1 0.0365041 0.873377 0.388691
724 2 0.726046 0.89821 0.381164
225 1 0.879712 0.817966 0.385303
236 1 0.141923 0.162223 0.439176
235 1 0.951397 0.0762979 0.448474
257 1 0.0849291 1.00097 0.452136
735 2 0.234846 0.0913728 0.481212
208 1 0.426406 0.057527 0.430099
233 1 0.252059 0.0364863 0.445048
214 1 0.374719 0.168548 0.451463
204 1 0.550579 0.954841 0.434764
729 2 0.512155 0.10816 0.459829
684 2 0.510161 0.211634 0.41559
659 2 0.746296 0.136043 0.472949
681 2 0.987001 0.943585 0.427934
209 1 0.802358 0.0141291 0.453249
705 2 0.640965 0.966311 0.463963
711 2 0.180985 0.445038 0.42831
181 1 0.0349262 0.293911 0.443312
237 1 0.0465614 0.546348 0.405358
736 2 0.0469625 0.272913 0.399354
272 1 0.125102 0.341172 0.481343
232 1 0.233474 0.282725 0.43841
213 1 0.255399 0.341344 0.402982
238 1 0.419162 0.311017 0.437831
242 1 0.332352 0.379054 0.46516
239 1 0.342271 0.446873 0.430412
689 2 0.539632 0.366606 0.423631
259 1 0.5819 0.242036 0.45572
211 1 0.944861 0.189021 0.42024
690 2 0.802564 0.137304 0.422707
709 2 0.853686 0.312169 0.423887
215 1 0.029044 0.433284 0.444565
210 1 0.886119 0.208531 0.46031
734 2 0.755018 0.301848 0.460316
222 1 0.0773763 0.714925 0.407384
695 2 0.106032 0.570315 0.438583
246 1 0.0479066 0.683283 0.461626
218 1 0.426796 0.632705 0.435525
713 2 0.328263 0.579059 0.471896
266 1 0.208423 0.70548 0.444597
716 2 0.282194 0.581099 0.428936
243 1 0.416224 0.749423 0.459633
718 2 0.679425 0.473555 0.419897
723 2 0.6131 0.635613 0.419811
694 2 0.536606 0.516466 0.436962
240 1 0.726099 0.500029 0.455141
693 2 0.87272 0.449382 0.435188
296 1 0.925062 0.589963 0.446345
275 1 0.794151 0.591242 0.416022
725 2 0.17387 0.967321 0.403391
746 2 0.125487 0.846912 0.434342
708 2 0.460235 0.851757 0.425291
722 2 0.35931 0.742995 0.41351
702 2 0.271319 0.903981 0.427254
748 2 0.581326 0.831063 0.469577
229 1 0.671901 0.807232 0.438464
749 2 0.714765 0.947728 0.423746
719 2 0.82373 0.770767 0.413557
668 2 0.556159 0.695523 0.454629
224 1 0.745141 0.859042 0.470299
205 1 0.847913 0.879769 0.44527
206 1 0.0256904 0.828253 0.46748
745 2 0.969379 0.79909 0.428757
300 1 0.85659 0.728905 0.462042
726 2 0.0793395 0.181624 0.476151
731 2 0.147036 0.0343482 0.528712
760 2 0.213639 0.240131 0.506247
727 2 0.375954 0.938684 0.452932
733 2 0.38547 0.0758487 0.483616
751 2 0.243035 0.947279 0.498253
704 2 0.653231 0.883241 0.500687
753 2 0.530655 0.173787 0.517925
264 1 0.577965 0.0791818 0.489665
255 1 0.561263 0.990171 0.522414
230 1 0.802251 0.274349 0.4996
250 1 0.725592 0.031047 0.510425
755 2 0.949643 0.954414 0.479616
799 2 0.982783 0.0165484 0.524416
715 2 0.916476 0.108931 0.485294
759 2 0.894593 0.145329 0.525043
261 1 0.271611 0.236815 0.476829
265 1 0.962099 0.270049 0.490223
740 2 0.0225377 0.422068 0.500919
762 2 0.142256 0.372949 0.519101
732 2 0.3883 0.237619 0.507715
234 1 0.468848 0.313385 0.479337
728 2 0.50045 0.343584 0.518075
739 2 0.634578 0.391198 0.455827
778 2 0.650157 0.234194 0.489504
269 1 0.554899 0.527957 0.520553
685 2 0.890958 0.405393 0.482538
245 1 0.812805 0.590622 0.476491
761 2 0.891495 0.493248 0.513536
270 1 0.635121 0.428234 0.499347
241 1 0.00898987 0.541108 0.475753
742 2 0.224815 0.524592 0.531428
767 2 0.076825 0.61547 0.503685
262 1 0.183474 0.654065 0.481114
712 2 0.208112 0.462001 0.485964
714 2 0.482623 0.486938 0.481237
747 2 0.373892 0.525258 0.505503
743 2 0.447118 0.707723 0.539538
273 1 0.242434 0.675566 0.515767
737 2 0.721297 0.655492 0.442878
738 2 0.617556 0.588933 0.474923
779 2 0.595105 0.713027 0.513343
744 2 0.688881 0.571519 0.510196
770 2 0.935267 0.725135 0.497826
299 1 0.776814 0.706535 0.521988
267 1 0.14459 0.796416 0.500816
227 1 0.18213 0.888339 0.467245
251 1 0.105574 0.0128676 0.492225
278 1 0.175223 0.852731 0.533096
741 2 0.290677 0.746639 0.484515
248 1 0.353863 0.776754 0.517489
752 2 0.361905 0.865992 0.483938
249 1 0.447223 0.654114 0.490574
228 1 0.485446 0.945599 0.476038
254 1 0.704906 0.726338 0.485135
772 2 0.508506 0.847176 0.507451
774 2 0.807562 0.905687 0.507062
701 2 0.989806 0.857226 0.508961
750 2 0.029815 0.876616 0.544967
252 1 0.290303 0.0719829 0.57749
321 1 0.985823 0.113247 0.597032
291 1 0.13727 0.214848 0.574128
256 1 0.0786871 0.188476 0.514138
309 1 0.410681 0.986895 0.516271
757 2 0.329878 0.155789 0.541519
758 2 0.42234 0.12431 0.586888
282 1 0.42029 0.973036 0.574805
756 2 0.318001 0.237803 0.575854
310 1 0.476458 0.074075 0.546256
754 2 0.802266 0.893433 0.579187
314 1 0.729379 0.97353 0.547121
730 2 0.867771 0.894393 0.54039
780 2 0.864343 0.0470326 0.557849
290 1 0.800219 0.251007 0.53945
292 1 0.207968 0.476331 0.571968
765 2 0.064809 0.309437 0.55206
763 2 0.295565 0.365364 0.506247
263 1 0.517987 0.38914 0.553136
788 2 0.231207 0.315811 0.543952
268 1 0.469915 0.275181 0.58753
284 1 0.67366 0.156838 0.528369
764 2 0.504513 0.243897 0.549546
294 1 0.636765 0.334086 0.528863
260 1 0.931671 0.320416 0.528125
789 2 0.771253 0.368912 0.567662
790 2 0.77727 0.413742 0.524048
791 2 0.905069 0.439912 0.559288
776 2 0.931757 0.18106 0.562235
298 1 0.0984434 0.505688 0.599974
287 1 0.0579784 0.476008 0.548258
793 2 0.189577 0.783381 0.57339
293 1 0.12161 0.638199 0.563593
817 2 0.322981 0.48568 0.607844
792 2 0.399045 0.450129 0.541121
253 1 0.290003 0.659712 0.553455
768 2 0.496423 0.554052 0.559682
219 1 0.662414 0.468224 0.550067
769 2 0.661848 0.636204 0.546322
773 2 0.604277 0.613919 0.590317
319 1 0.57187 0.445439 0.588951
274 1 0.938287 0.618606 0.53679
295 1 0.984937 0.594622 0.572474
794 2 0.790571 0.54735 0.543326
366 1 0.83495 0.605095 0.581575
822 2 0.16339 0.954065 0.565549
766 2 0.0608519 0.72587 0.535877
288 1 0.464947 0.878523 0.544191
258 1 0.279374 0.997581 0.53852
283 1 0.303407 0.832949 0.549979
277 1 0.282844 0.923542 0.589758
303 1 0.546651 0.791756 0.569782
285 1 0.714799 0.744245 0.588122
308 1 0.577297 0.989047 0.563476
279 1 0.648802 0.84497 0.53488
226 1 0.839066 0.757436 0.557314
297 1 0.883662 0.797702 0.606606
771 2 0.0223411 0.0730595 0.558312
775 2 0.0035291 0.766063 0.571148
800 2 0.967474 0.935757 0.578694
302 1 0.0522885 0.117637 0.641124
276 1 0.224238 0.17552 0.608666
833 2 0.238313 0.258398 0.645186
803 2 0.341427 0.0555707 0.617102
808 2 0.551378 0.04987 0.600055
307 1 0.414825 0.210998 0.629244
335 1 0.501115 0.0791828 0.632153
783 2 0.707558 0.0185323 0.588391
289 1 0.631167 0.133291 0.565743
804 2 0.66445 0.178099 0.605156
281 1 0.91765 0.0408637 0.642917
849 2 0.844802 0.888907 0.657686
784 2 0.94242 0.229642 0.625818
785 2 0.825313 0.166654 0.591627
824 2 0.844172 0.00396278 0.603611
286 1 0.0364071 0.369001 0.590306
781 2 0.0810109 0.256918 0.619256
832 2 0.188843 0.346484 0.597788
801 2 0.106974 0.357106 0.653096
333 1 0.328193 0.32198 0.61028
782 2 0.468751 0.41409 0.622522
787 2 0.39663 0.416793 0.578421
331 1 0.255763 0.397145 0.63867
807 2 0.381524 0.336739 0.663848
809 2 0.618038 0.293681 0.576353
834 2 0.625631 0.421207 0.627516
313 1 0.701952 0.518514 0.598284
339 1 0.566589 0.269713 0.625218
306 1 0.744302 0.324023 0.604761
311 1 0.886057 0.31648 0.599243
315 1 0.826554 0.479815 0.627807
795 2 0.0702245 0.637598 0.638013
342 1 0.226554 0.610108 0.606612
322 1 0.363062 0.631724 0.585151
347 1 0.356032 0.511554 0.648625
323 1 0.470143 0.548714 0.600167
818 2 0.479676 0.714015 0.597777
338 1 0.586965 0.559609 0.627298
813 2 0.781058 0.655058 0.618313
324 1 0.633772 0.706083 0.620361
343 1 0.637013 0.646015 0.668109
814 2 0.0891637 0.68434 0.59978
320 1 0.94298 0.492881 0.604664
349 1 0.925883 0.643466 0.613862
796 2 0.130356 0.0515541 0.598229
798 2 0.259917 0.776561 0.612128
271 1 0.129194 0.874141 0.601171
327 1 0.25957 0.963247 0.644098
326 1 0.114967 0.977198 0.631762
821 2 0.10765 0.773792 0.630762
777 2 0.39722 0.650917 0.626858
348 1 0.397224 0.82904 0.578309
329 1 0.440775 0.932395 0.615206
823 2 0.637966 0.883693 0.589037
819 2 0.51966 0.775395 0.638534
280 1 0.979478 0.905599 0.62302
325 1 0.735993 0.844446 0.615188
332 1 0.123855 0.203521 0.66905
851 2 0.238867 0.23669 0.719231
802 2 0.0287915 0.0774961 0.691914
871 2 0.932366 0.187971 0.710112
352 1 0.136662 0.105265 0.721574
358 1 0.416229 0.182979 0.66707
872 2 0.241186 0.0891245 0.671638
334 1 0.453207 0.0242861 0.691779
353 1 0.387246 0.199085 0.708756
304 1 0.690752 0.0286108 0.632445
835 2 0.56586 0.14937 0.661907
301 1 0.577996 0.013154 0.661868
826 2 0.80788 0.150122 0.636562
360 1 0.668206 0.244012 0.691971
376 1 0.706623 0.0881117 0.683817
305 1 0.862934 0.106963 0.676757
846 2 0.883154 0.957299 0.691878
810 2 0.94704 0.234312 0.668499
829 2 0.211757 0.308653 0.679425
806 2 0.245819 0.450556 0.673508
357 1 0.996098 0.364788 0.690315
812 2 0.111004 0.484402 0.708564
362 1 0.0416558 0.544326 0.672901
805 2 0.077282 0.238284 0.706789
312 1 0.435354 0.482739 0.680951
364 1 0.344322 0.373253 0.703673
359 1 0.40977 0.344157 0.736769
330 1 0.513519 0.293128 0.672834
365 1 0.700151 0.292688 0.655874
340 1 0.819773 0.277176 0.68615
840 2 0.894525 0.352293 0.646023
816 2 0.00500899 0.458671 0.636335
811 2 0.855111 0.430311 0.677816
797 2 0.171887 0.524483 0.634858
815 2 0.0655523 0.696162 0.678053
341 1 0.196553 0.589945 0.664672
328 1 0.236629 0.696197 0.64386
317 1 0.486282 0.618958 0.655827
316 1 0.487454 0.632287 0.695926
862 2 0.355451 0.653239 0.674413
837 2 0.53658 0.453052 0.658817
345 1 0.714763 0.534947 0.697679
845 2 0.784548 0.735678 0.654428
844 2 0.665226 0.406061 0.683715
839 2 0.730361 0.566779 0.648308
860 2 0.895168 0.603632 0.663041
836 2 0.926995 0.819873 0.682302
848 2 0.832093 0.70102 0.691946
847 2 0.234598 0.751585 0.69174
841 2 0.165525 0.969384 0.702866
346 1 0.150689 0.848893 0.664482
372 1 0.399122 0.0203993 0.655124
842 2 0.376457 0.815163 0.637344
827 2 0.328163 0.945204 0.681688
873 2 0.477451 0.888479 0.66272
350 1 0.655169 0.830543 0.659033
843 2 0.550721 0.767034 0.680637
374 1 0.583706 0.910871 0.628695
375 1 0.687116 0.702978 0.702034
850 2 0.747067 0.933566 0.687083
820 2 0.991417 0.959257 0.667224
825 2 0.957375 0.752271 0.639866
865 2 0.00170499 0.894612 0.711895
852 2 0.182988 0.0493225 0.755108
881 2 0.154757 0.270264 0.756538
354 1 0.576742 0.00661638 0.729476
377 1 0.324602 0.0649698 0.721778
854 2 0.295703 0.191313 0.754563
397 1 0.383763 0.983973 0.755363
909 2 0.598917 0.146583 0.75297
859 2 0.715132 0.133036 0.723251
864 2 0.562797 0.156708 0.706516
390 1 0.828964 0.257025 0.729288
414 1 0.510543 0.253075 0.764044
855 2 0.855749 0.0767369 0.727076
830 2 0.991952 0.0339965 0.729711
371 1 0.850808 0.95252 0.752448
876 2 0.0253512 0.184461 0.740606
416 1 0.0292323 0.551944 0.746127
863 2 0.0942563 0.386891 0.737805
861 2 0.93692 0.526837 0.701538
786 2 0.242155 0.403589 0.728947
318 1 0.476043 0.464671 0.715609
389 1 0.460034 0.0994602 0.735507
369 1 0.252249 0.367144 0.76519
400 1 0.337335 0.473983 0.750357
361 1 0.802638 0.410896 0.712521
370 1 0.546515 0.333628 0.710173
410 1 0.569038 0.413476 0.745411
356 1 0.906663 0.126219 0.767815
351 1 0.935769 0.373428 0.724623
386 1 0.884513 0.488048 0.747484
831 2 0.212968 0.548093 0.742414
368 1 0.121794 0.644278 0.711677
891 2 0.976992 0.713486 0.717085
866 2 0.268004 0.714338 0.776648
838 2 0.368876 0.804816 0.695771
828 2 0.316497 0.576174 0.706523
874 2 0.572504 0.574116 0.724027
898 2 0.374436 0.743993 0.733955
336 1 0.71867 0.507925 0.743443
868 2 0.597055 0.586745 0.769524
404 1 0.537113 0.733189 0.755152
344 1 0.807906 0.861291 0.719791
858 2 0.847885 0.596064 0.723337
870 2 0.698994 0.652993 0.743159
895 2 0.69052 0.703156 0.778972
886 2 0.298502 0.899319 0.722631
867 2 0.140158 0.81252 0.721164
367 1 0.0740954 0.893776 0.748559
900 2 0.231148 0.866977 0.762308
398 1 0.00683328 0.808759 0.784883
424 1 0.0822191 0.698318 0.752385
373 1 0.237766 0.679822 0.738987
423 1 0.457324 0.911685 0.721498
382 1 0.503516 0.0240611 0.781184
355 1 0.601044 0.89096 0.700042
379 1 0.539234 0.900218 0.762145
337 1 0.520083 0.758833 0.718755
869 2 0.654066 0.995613 0.781181
422 1 0.690243 0.832133 0.753649
387 1 0.947866 0.806864 0.743743
875 2 0.711313 0.970696 0.730079
473 1 0.824857 0.789296 0.76697
435 1 0.0546644 0.313253 0.800625
877 2 0.0989351 0.137899 0.787508
413 1 0.180601 0.118231 0.815458
896 2 0.00627124 0.0180488 0.767904
882 2 0.408103 0.162033 0.781194
857 2 0.295761 0.263452 0.795143
892 2 0.299072 0.0581419 0.783632
853 2 0.758148 0.159653 0.765733
924 2 0.539548 0.157678 0.799288
949 2 0.638696 0.00362419 0.817647
920 2 0.713072 0.150272 0.808243
405 1 0.913995 0.111236 0.80641
401 1 0.950626 0.962811 0.809136
425 1 0.794385 0.0150187 0.79057
879 2 0.859454 0.258973 0.778216
381 1 0.0707252 0.469367 0.774306
407 1 0.968899 0.323456 0.834343
412 1 0.149173 0.310353 0.828816
393 1 0.260582 0.426643 0.801682
887 2 0.443293 0.515135 0.786162
884 2 0.38739 0.382213 0.778041
443 1 0.29715 0.352912 0.834073
889 2 0.689802 0.337481 0.751214
930 2 0.733944 0.305067 0.791876
394 1 0.561131 0.466609 0.809759
941 2 0.428637 0.285422 0.816921
964 2 0.559696 0.326095 0.795867
429 1 0.395833 0.520359 0.825767
385 1 0.887519 0.40986 0.784367
384 1 0.986263 0.312019 0.762654
406 1 0.989557 0.469306 0.806066
411 1 0.133598 0.495008 0.818784
363 1 0.993574 0.636058 0.810186
408 1 0.229679 0.572463 0.782713
917 2 0.117862 0.711387 0.786484
893 2 0.410029 0.649636 0.766315
919 2 0.500581 0.77142 0.795612
449 1 0.369636 0.692663 0.801365
939 2 0.58143 0.629407 0.815239
391 1 0.681369 0.448504 0.782531
415 1 0.719127 0.569677 0.807535
935 2 0.867145 0.508919 0.832785
885 2 0.922272 0.674263 0.757652
890 2 0.839408 0.565977 0.783423
856 2 0.868631 0.702651 0.799807
392 1 0.0600367 0.849824 0.817065
910 2 0.141688 0.94623 0.794391
383 1 0.246876 0.834158 0.80013
897 2 0.0593182 0.0433394 0.826318
499 1 0.242737 0.943326 0.827319
388 1 0.396228 0.0815468 0.811679
430 1 0.382687 0.815257 0.76451
378 1 0.384692 0.914984 0.793115
923 2 0.408908 0.828388 0.823416
380 1 0.493535 0.953191 0.821965
396 1 0.644639 0.827151 0.797371
399 1 0.592009 0.825718 0.832125
899 2 0.722709 0.90187 0.835523
420 1 0.807721 0.864949 0.799683
421 1 0.808843 0.034482 0.83257
880 2 0.0742694 0.178541 0.848589
908 2 0.0369477 0.0698089 0.893382
937 2 0.204797 0.30804 0.866947
431 1 0.284039 0.0870105 0.86067
427 1 0.545478 0.0760908 0.912112
883 2 0.580279 0.125783 0.838746
878 2 0.305803 0.186718 0.828833
409 1 0.567396 0.264511 0.848684
434 1 0.41518 0.119223 0.864138
904 2 0.682956 0.0213871 0.860812
459 1 0.736052 0.0923701 0.907328
481 1 0.608764 0.152705 0.879328
402 1 0.864398 0.0885418 0.88995
426 1 0.942706 0.240161 0.870306
950 2 0.803148 0.0270023 0.935554
418 1 0.29475 0.425763 0.869068
912 2 0.0466689 0.384356 0.863096
934 2 0.360188 0.269263 0.863886
913 2 0.264268 0.607906 0.836197
984 2 0.482141 0.414354 0.847744
460 1 0.7903 0.406872 0.814213
888 2 0.70095 0.282737 0.832794
975 2 0.775932 0.152064 0.851666
960 2 0.701189 0.454118 0.876939
944 2 0.0040329 0.56048 0.843396
417 1 0.859283 0.249503 0.818375
905 2 0.826333 0.356851 0.859148
441 1 0.0390729 0.708357 0.857
940 2 0.124675 0.641261 0.824612
901 2 0.135735 0.535737 0.863076
902 2 0.14405 0.625739 0.892825
440 1 0.396132 0.538557 0.870011
894 2 0.297179 0.681241 0.874217
943 2 0.511626 0.712602 0.844311
458 1 0.507333 0.630838 0.894557
445 1 0.658874 0.540657 0.841239
914 2 0.650814 0.69975 0.87475
946 2 0.7486 0.742136 0.919802
915 2 0.768181 0.598513 0.869479
497 1 0.91363 0.651458 0.883699
395 1 0.719017 0.74293 0.823909
972 2 0.896196 0.671156 0.841979
945 2 0.797056 0.783708 0.884089
916 2 0.124411 0.0175708 0.862493
942 2 0.172994 0.773506 0.835458
428 1 0.00593338 0.913591 0.851051
452 1 -0.000880154 0.81712 0.883382
921 2 0.201324 0.89349 0.872767
948 2 0.355936 0.945722 0.868593
403 1 0.485945 0.877164 0.857335
925 2 0.323132 0.806625 0.856253
450 1 0.532826 0.0169031 0.873199
472 1 0.65164 0.874035 0.86834
991 2 0.464295 0.769086 0.885554
922 2 0.929777 0.0731888 0.857038
931 2 0.800617 0.919684 0.865154
911 2 0.915189 0.821643 0.821921
451 1 0.937318 0.95138 0.884613
453 1 0.245665 0.0131354 0.893477
457 1 0.125211 0.118169 0.919991
932 2 0.101622 0.214963 0.888054
433 1 0.259584 0.0799812 0.931009
446 1 0.396304 0.11791 0.927348
479 1 0.630172 0.252092 0.905388
20 1 0.669294 0.988762 0.937877
954 2 0.0143286 0.0137799 0.935164
983 2 0.959635 0.191752 0.908368
976 2 0.789021 0.235334 0.907338