ITEM: TIMESTEP
17290
ITEM: NUMBER OF ATOMS
1000
ITEM: BOX BOUNDS pp pp pp
0.0000000000000000e+00 6.2996052494743662e+00
0.0000000000000000e+00 6.2996052494743662e+00
0.0000000000000000e+00 2.5198420997897465e+01
ITEM: ATOMS id type xs ys zs
51 1 0.0767429 0.193948 0.036267
951 2 0.12247 0.0378751 0.0380811
46 1 0.146787 0.0145492 0.993623
526 2 0.361049 0.0311311 0.0165524
512 2 0.226345 0.157198 0.0315059
548 2 0.386655 0.065133 0.0555185
34 1 0.376279 0.177927 0.0210135
518 2 0.70276 0.058317 0.023352
507 2 0.507367 0.155178 0.0507461
27 1 0.750426 0.20293 0.0308994
471 1 0.00129212 0.103283 0.0131295
918 2 0.898165 0.196529 0.0314163
973 2 0.855346 0.0917138 1.00017
510 2 0.129371 0.392991 0.0494235
927 2 0.155748 0.275048 0.00948574
482 1 0.290272 0.473405 0.026371
454 1 0.114417 0.532053 0.0409244
980 2 0.255991 0.584538 0.000676544
952 2 0.268553 0.351877 0.99438
511 2 0.440233 0.323753 0.0340927
986 2 0.399347 0.26975 0.991405
92 1 0.256944 0.313397 0.0345295
29 1 0.559054 0.193237 0.0180215
527 2 0.576297 0.288604 0.0521347
477 1 0.665973 0.449388 0.0549892
71 1 0.94837 0.339214 0.0489342
73 1 0.758381 0.425921 0.0109781
13 1 0.963474 0.414556 0.00994433
977 2 0.797521 0.355723 0.0454774
487 1 0.970266 0.497548 0.0443649
139 1 0.0821457 0.65465 0.0170121
63 1 0.46182 0.553385 0.0290056
48 1 0.333314 0.67761 0.028569
947 2 0.467294 0.794767 0.0394942
514 2 0.360739 0.549902 0.0549579
15 1 0.574622 0.61635 0.0553253
520 2 0.693423 0.573345 0.0220922
33 1 0.512978 0.702351 0.0131863
529 2 0.823995 0.521877 0.0366033
987 2 0.949228 0.650492 0.0380392
49 1 0.788798 0.659089 0.0435416
37 1 0.915903 0.818014 0.0168747
532 2 0.0416402 0.783076 0.0543219
508 2 0.85267 0.579941 0.00101559
70 1 0.148362 0.890373 0.0405864
979 2 0.255299 0.933051 0.0149932
488 1 0.0148182 0.953418 0.998821
478 1 0.246671 0.777552 0.00317807
23 1 0.315385 0.838105 0.0349341
12 1 0.418848 0.890606 0.011408
555 2 0.258598 0.973906 0.0549251
36 1 0.752381 0.889431 0.0413079
4 1 0.656456 0.845893 0.0108753
516 2 0.541199 0.990216 0.0266638
95 1 0.582418 0.876713 0.0574591
6 1 0.637433 0.74396 0.0369565
498 1 0.846623 0.0110898 0.0365217
61 1 0.789013 0.750096 0.00333761
581 2 0.0955105 0.126818 0.0728707
560 2 0.237893 0.123155 0.0688684
599 2 0.226638 0.0913784 0.108096
513 2 0.371214 0.142865 0.0869025
468 1 0.518364 0.00452454 0.0849806
45 1 0.643251 0.0286259 0.057963
558 2 0.484639 0.209512 0.10589
982 2 0.6656 0.179945 0.0673464
59 1 0.6583 0.0622009 0.105302
525 2 0.773923 0.0791949 0.0730675
528 2 0.856734 0.221565 0.0764053
541 2 0.855111 0.059296 0.111689
546 2 0.166045 0.266777 0.0667612
65 1 0.0222811 0.434581 0.0763726
41 1 1.00359 0.235443 0.0840351
52 1 0.330937 0.376753 0.062878
17 1 0.432655 0.286048 0.0716327
552 2 0.509071 0.448951 0.0603906
89 1 0.287656 0.237883 0.106664
78 1 0.303144 0.439285 0.0984814
62 1 0.444928 0.412286 0.0966841
565 2 0.761436 0.489322 0.0916996
554 2 0.739804 0.30182 0.0843591
561 2 0.567598 0.359183 0.085523
566 2 0.761717 0.178551 0.115292
485 1 0.879802 0.395211 0.0937427
42 1 0.809577 0.330872 0.120491
575 2 0.971875 0.315813 0.116372
85 1 0.0420739 0.617314 0.0780284
9 1 0.155721 0.677104 0.050805
7 1 0.197075 0.683573 0.0890706
594 2 0.984376 0.620941 0.112823
28 1 0.200881 0.523091 0.0774871
533 2 0.46525 0.602553 0.0844196
538 2 0.305328 0.606844 0.108811
521 2 0.73959 0.645756 0.080933
56 1 0.603115 0.500923 0.0917744
86 1 0.691582 0.739233 0.11845
77 1 0.961243 0.467383 0.114859
35 1 0.880775 0.559507 0.0774086
40 1 0.899283 0.700514 0.071004
981 2 0.834916 0.618172 0.121167
542 2 0.221249 0.839561 0.0810644
597 2 0.00971845 0.947564 0.0595591
98 1 0.0831194 0.793903 0.103569
53 1 0.172931 0.97748 0.0876144
38 1 0.343175 0.975728 0.0896662
547 2 0.413772 0.820008 0.0966467
537 2 0.328844 0.755177 0.0693029
509 2 0.415577 0.912967 0.0588389
524 2 0.722451 0.793196 0.072802
545 2 0.530528 0.741166 0.0766661
21 1 0.622656 0.880243 0.101425
967 2 0.956412 0.0910316 0.077021
534 2 0.772202 0.937112 0.0847555
39 1 0.877709 0.845578 0.0601593
589 2 0.110406 0.22929 0.111316
577 2 0.133385 0.983803 0.128482
539 2 0.978068 0.137238 0.153456
54 1 0.0366635 0.0170011 0.169043
638 2 0.103969 0.211586 0.156258
543 2 0.388464 0.148221 0.1281
68 1 0.427152 0.0622166 0.159095
112 1 0.23689 0.0863488 0.160252
99 1 0.555073 0.148604 0.134175
90 1 0.659785 0.157164 0.189228
117 1 0.700742 0.0678422 0.153604
559 2 0.0112057 0.0842521 0.110274
486 1 0.903062 0.191939 0.129045
118 1 0.850584 0.036999 0.151548
57 1 0.141862 0.388055 0.100896
544 2 0.0776259 0.43293 0.14147
105 1 0.469075 0.294869 0.136836
82 1 0.224919 0.389595 0.133708
76 1 0.260549 0.234829 0.144625
595 2 0.381442 0.417026 0.149783
101 1 0.331944 0.29091 0.175559
590 2 0.731254 0.467328 0.130058
557 2 0.603562 0.275505 0.154913
576 2 0.668375 0.309825 0.117452
100 1 0.637697 0.46115 0.161005
50 1 0.556636 0.424286 0.131727
93 1 0.877051 0.386683 0.149907
60 1 0.758003 0.260774 0.159521
985 2 0.180859 0.57547 0.129686
125 1 0.192353 0.513654 0.164419
107 1 0.0883038 0.694325 0.135015
553 2 0.0149311 0.724342 0.168766
11 1 0.333749 0.604304 0.149373
998 2 0.49116 0.685141 0.116884
551 2 0.319431 0.746409 0.122213
519 2 0.454402 0.545243 0.127631
116 1 0.414673 0.736772 0.15385
64 1 0.608597 0.597571 0.129143
647 2 0.499113 0.617819 0.168073
636 2 0.0185934 0.583507 0.1589
80 1 0.842799 0.539786 0.15615
83 1 0.85161 0.656775 0.180896
604 2 0.736242 0.660789 0.151055
963 2 0.23855 0.864431 0.121488
88 1 0.941807 0.922546 0.138015
141 1 0.0789902 0.84553 0.146009
72 1 0.32427 -6.45279e-05 0.125821
97 1 0.225264 0.78955 0.153911
570 2 0.373231 0.91381 0.158034
587 2 0.477328 0.9673 0.121812
120 1 0.172808 0.9479 0.160585
598 2 0.513079 0.825255 0.133456
502 2 0.580203 0.803703 0.171226
14 1 0.738546 0.808975 0.150773
108 1 0.720412 0.923605 0.17659
971 2 0.605451 0.944992 0.13885
550 2 0.77674 0.928329 0.125065
517 2 0.876739 0.825933 0.165802
104 1 0.917447 0.708098 0.139997
44 1 0.986252 0.911592 0.0969821
10 1 0.864383 0.793237 0.100885
583 2 0.994245 0.133083 0.195049
569 2 0.173257 0.135214 0.19939
671 2 0.485045 0.202494 0.173523
74 1 0.334779 0.0391071 0.193409
586 2 0.517988 0.0414039 0.195442
603 2 0.295172 0.0857533 0.230681
626 2 0.573715 0.181579 0.216471
102 1 0.724957 0.0914961 0.222559
540 2 0.522959 0.933531 0.16879
578 2 0.905652 0.968825 0.181235
530 2 0.789926 0.0925482 0.188673
109 1 0.896818 0.231456 0.17761
26 1 0.83713 0.185075 0.220663
957 2 0.0325477 0.278582 0.190046
535 2 0.183409 0.343216 0.171499
585 2 0.241865 0.364444 0.210072
582 2 0.0579706 0.415776 0.214036
610 2 0.126681 0.258328 0.224053
91 1 0.324977 0.44633 0.181068
611 2 0.30064 0.213149 0.212404
609 2 0.400675 0.384454 0.213033
607 2 0.444657 0.251168 0.205229
556 2 0.491599 0.371164 0.174497
670 2 0.609664 0.350058 0.19676
592 2 0.532529 0.342494 0.229281
1 1 0.982766 0.413368 0.174812
157 1 0.78413 0.401374 0.184619
622 2 0.855632 0.512169 0.228487
161 1 0.703502 0.266059 0.218492
567 2 0.902246 0.361811 0.206216
87 1 0.106231 0.539462 0.195198
169 1 0.00654496 0.66447 0.210739
144 1 0.166324 0.673211 0.179604
591 2 0.157738 0.725749 0.230436
606 2 0.241258 0.577066 0.20026
593 2 0.323422 0.685742 0.180359
665 2 0.398758 0.546732 0.202771
84 1 0.557747 0.513933 0.195075
150 1 0.633286 0.675741 0.185905
621 2 0.715345 0.412807 0.229943
531 2 0.717425 0.718486 0.233013
619 2 0.521751 0.707189 0.225391
642 2 0.923358 0.530911 0.191418
564 2 0.725421 0.547404 0.196554
632 2 0.853976 0.672582 0.215801
127 1 0.19017 0.960738 0.207652
122 1 0.105616 0.84728 0.186572
616 2 0.0386835 0.802323 0.22325
562 2 0.411875 0.962659 0.22385
66 1 0.260475 0.811241 0.192302
149 1 0.440862 0.843009 0.194356
69 1 0.48975 0.85021 0.237804
131 1 0.614535 0.882521 0.205892
628 2 0.955776 0.0196554 0.226148
113 1 0.758456 0.804874 0.200857
615 2 0.804189 0.967684 0.20859
596 2 0.922643 0.822311 0.20089
580 2 0.986608 0.17857 0.234178
667 2 0.146954 0.0936663 0.239237
652 2 0.144367 0.0446264 0.279344
124 1 0.315075 0.0314918 0.292527
140 1 0.266273 0.156185 0.26611
536 2 0.568876 0.00680273 0.229993
572 2 0.392383 0.206973 0.249411
110 1 0.535595 0.145284 0.253101
129 1 0.680263 0.211787 0.256155
601 2 0.970519 0.0652993 0.272574
630 2 0.839926 0.0681858 0.247667
135 1 0.842466 0.311625 0.247589
649 2 0.0182654 0.235842 0.272757
123 1 0.837819 0.211019 0.277353
166 1 0.15402 0.356819 0.261291
618 2 0.146138 0.249417 0.2899
608 2 0.283931 0.302861 0.242755
634 2 0.22568 0.516826 0.269109
145 1 0.170823 0.406989 0.296639
640 2 0.300717 0.376574 0.281624
612 2 0.487788 0.461639 0.285501
653 2 0.423112 0.384683 0.252754
651 2 0.332034 0.47863 0.238517
623 2 0.534857 0.283233 0.276752
627 2 0.616647 0.468977 0.256804
130 1 0.00378991 0.370161 0.254016
691 2 0.763239 0.420608 0.27148
563 2 0.0207205 0.740432 0.257648
247 1 0.0976888 0.582521 0.275922
121 1 0.167665 0.550041 0.236437
672 2 0.280874 0.686835 0.255374
115 1 0.356489 0.707171 0.224389
635 2 0.458889 0.716901 0.265145
164 1 0.476669 0.536978 0.239983
148 1 0.36549 0.565189 0.279861
55 1 0.63962 0.588153 0.237544
637 2 0.737514 0.571859 0.271353
617 2 0.577976 0.583973 0.288133
675 2 0.761195 0.74255 0.268382
155 1 0.600577 0.708379 0.260336
111 1 0.880914 0.76978 0.244881
641 2 0.979822 0.494871 0.280327
568 2 0.00634426 0.5222 0.242312
152 1 0.904613 0.624847 0.257485
231 1 0.913388 0.745327 0.284379
128 1 0.230174 0.932764 0.264098
176 1 0.0884478 0.927993 0.245625
142 1 0.194198 0.766933 0.285667
614 2 0.0781304 0.875062 0.285011
613 2 0.268861 0.851658 0.234389
579 2 0.411946 0.043485 0.25952
134 1 0.394848 0.885669 0.267464
147 1 0.644764 0.860299 0.272068
605 2 0.692874 0.0428821 0.260335
655 2 0.64119 0.776012 0.311479
94 1 0.878455 0.915462 0.256138
648 2 0.719906 0.890393 0.234464
81 1 0.820111 0.853647 0.294614
625 2 0.953521 0.935822 0.298868
680 2 0.0357507 0.0510067 0.307861
690 2 0.106947 0.112565 0.356897
185 1 0.184264 0.0936692 0.318837
179 1 0.0615969 0.214393 0.319936
151 1 0.445988 0.154851 0.293362
201 1 0.317401 0.188587 0.309892
602 2 0.394439 0.142467 0.346936
679 2 0.627396 0.119161 0.290634
686 2 0.515383 0.211569 0.327353
238 1 0.573056 0.064491 0.343755
189 1 0.705218 0.205287 0.337953
202 1 0.734103 0.0623623 0.326332
172 1 0.891886 0.129654 0.321828
133 1 0.834966 0.271671 0.31831
719 2 0.818956 0.0284563 0.285597
749 2 0.811718 0.130085 0.357615
165 1 0.943745 0.240707 0.347885
715 2 0.95947 0.101475 0.360207
119 1 0.217317 0.317063 0.323
639 2 0.972334 0.468031 0.351633
687 2 0.231605 0.208035 0.351097
138 1 0.425775 0.315583 0.302981
126 1 0.395349 0.386694 0.33548
137 1 0.295151 0.507757 0.31694
67 1 0.594954 0.335384 0.347814
699 2 0.710738 0.302256 0.299912
154 1 0.695466 0.487296 0.302914
114 1 0.581948 0.386991 0.312664
160 1 0.901585 0.366223 0.284287
664 2 0.0134033 0.353659 0.324136
629 2 0.89328 0.443738 0.317757
194 1 0.758986 0.399233 0.345683
697 2 0.175207 0.642492 0.31435
620 2 0.137086 0.447343 0.329145
720 2 0.170967 0.575024 0.35017
682 2 0.0437399 0.700116 0.34055
153 1 0.0584504 0.722307 0.298707
195 1 0.497439 0.706768 0.306525
168 1 0.446608 0.538836 0.31348
624 2 0.323316 0.69688 0.30173
207 1 0.327394 0.650626 0.345097
657 2 0.534096 0.473103 0.349119
170 1 0.788238 0.565075 0.343821
650 2 0.629286 0.611667 0.328566
198 1 0.759525 0.731342 0.33306
645 2 0.608142 0.621436 0.366178
158 1 0.90366 0.705277 0.358765
178 1 0.0295045 0.576089 0.31595
175 1 0.845966 0.613759 0.303726
177 1 0.198324 0.934994 0.303344
159 1 0.0534846 0.892263 0.327339
221 1 0.182746 0.789028 0.327471
103 1 0.483184 0.861523 0.300794
183 1 0.515671 0.00535391 0.290366
658 2 0.32843 0.848789 0.30119
163 1 0.36983 0.814138 0.339222
696 2 0.444121 0.980079 0.343687
146 1 0.48839 0.651807 0.347135
724 2 0.6696 0.956841 0.301558
673 2 0.755006 0.887824 0.326609
703 2 0.562835 0.90475 0.331973
662 2 0.847367 0.972217 0.346645
588 2 0.915009 0.803361 0.325528
705 2 0.982114 0.8936 0.360407
181 1 0.193215 0.271623 0.393133
681 2 0.207338 0.961647 0.407563
236 1 0.234154 0.0702796 0.373995
136 1 0.347447 0.162754 0.385664
190 1 0.545463 0.184631 0.369627
187 1 0.694051 0.205766 0.385092
698 2 0.68172 0.0761565 0.371786
706 2 0.465151 0.0534316 0.385611
162 1 0.505687 0.235046 0.403011
716 2 0.815697 0.2768 0.36925
211 1 0.0159174 0.213203 0.393056
709 2 0.857968 0.158423 0.39882
240 1 0.0897975 0.0766502 0.393412
180 1 0.12326 0.418132 0.369368
584 2 0.0809781 0.353737 0.412063
106 1 0.0955631 0.286967 0.352257
656 2 0.260608 0.406502 0.354518
643 2 0.430029 0.285684 0.368498
677 2 0.223898 0.415457 0.398624
678 2 0.341032 0.314837 0.411914
188 1 0.43412 0.435958 0.3885
669 2 0.573083 0.348681 0.385594
237 1 0.679481 0.485096 0.364934
666 2 0.740637 0.457298 0.398631
692 2 0.79619 0.30806 0.403718
710 2 0.931848 0.351131 0.379375
644 2 0.840897 0.493013 0.371811
700 2 0.0276616 0.627303 0.377203
196 1 0.171423 0.560633 0.401807
200 1 0.12757 0.717644 0.425969
712 2 0.227497 0.689634 0.378827
661 2 0.285152 0.540086 0.374225
143 1 0.441414 0.564139 0.374366
220 1 0.338898 0.639335 0.403482
725 2 0.486741 0.706559 0.382424
171 1 0.522929 0.654671 0.428159
674 2 0.766844 0.651534 0.375258
156 1 0.023229 0.48089 0.391965
191 1 0.871029 0.585692 0.40284
676 2 0.817175 0.836162 0.363106
660 2 0.138149 0.957656 0.34903
225 1 0.108343 0.784976 0.373563
212 1 0.24525 0.866704 0.36418
205 1 0.0581221 0.91269 0.398932
197 1 0.294521 0.990988 0.332178
646 2 0.355546 0.943646 0.379786
741 2 0.396394 0.816645 0.398214
717 2 0.491746 0.867041 0.363573
633 2 0.584619 0.955712 0.391214
631 2 0.670859 0.791321 0.367525
173 1 0.570593 0.778747 0.414627
209 1 0.753569 0.868127 0.40023
654 2 0.94295 0.788603 0.387733
689 2 0.801428 0.0394465 0.419569
224 1 0.682706 0.947625 0.359028
251 1 0.877922 0.0217991 0.383163
184 1 0.103379 0.245353 0.440164
791 2 0.239218 0.970464 0.451383
772 2 0.095267 0.0584864 0.440644
767 2 0.981102 0.296384 0.462904
763 2 0.0835279 0.173655 0.472463
182 1 0.481468 0.0848542 0.423658
321 1 0.245268 0.192395 0.424731
792 2 0.238605 0.190869 0.463885
713 2 0.419066 0.254872 0.444575
257 1 0.329452 0.0662149 0.420306
738 2 0.526765 0.0626808 0.457512
233 1 0.585355 0.224648 0.440866
702 2 0.604129 0.0837212 0.406373
683 2 0.836688 0.087555 0.456668
193 1 0.775928 0.188316 0.433198
718 2 0.819266 0.234025 0.472626
659 2 0.974707 0.170494 0.439274
242 1 0.132035 0.345374 0.46742
261 1 -0.00110888 0.460646 0.445592
186 1 0.0655279 0.485358 0.490234
745 2 0.230608 0.468843 0.472042
688 2 0.332979 0.467778 0.424741
265 1 0.362571 0.371315 0.465004
736 2 0.253628 0.355299 0.436505
714 2 0.509011 0.359517 0.424754
216 1 0.663023 0.324438 0.418801
685 2 0.746279 0.523027 0.432288
234 1 0.826442 0.378087 0.439999
239 1 0.948912 0.293825 0.42192
217 1 0.895205 0.42601 0.410165
275 1 0.861261 0.488867 0.465871
199 1 0.267558 0.76896 0.418608
203 1 0.158845 0.463959 0.434934
222 1 0.115105 0.599974 0.453781
167 1 0.411 0.517925 0.450123
223 1 0.413069 0.770164 0.440453
296 1 0.268416 0.625386 0.436768
707 2 0.344035 0.728595 0.478553
779 2 0.65106 0.579477 0.408032
132 1 0.565532 0.50743 0.440726
255 1 0.677626 0.650132 0.453299
727 2 0.553636 0.795706 0.450609
737 2 0.0276566 0.600659 0.423616
723 2 0.902088 0.595216 0.441148
693 2 0.997083 0.723518 0.446606
722 2 0.817931 0.738783 0.453095
284 1 0.0314842 0.0227646 0.471908
746 2 0.238045 0.82384 0.457744
708 2 0.33029 0.901951 0.424743
755 2 0.11327 0.903666 0.432892
213 1 0.369131 0.071079 0.459686
174 1 0.367522 0.907596 0.46845
733 2 0.482683 0.917306 0.420751
206 1 0.736849 0.702242 0.414715
232 1 0.647761 0.916971 0.430873
208 1 0.532324 0.922597 0.46799
753 2 0.680284 0.777423 0.469878
229 1 0.778717 0.860538 0.437509
246 1 0.890909 0.74587 0.421136
684 2 0.927709 0.937413 0.426187
774 2 0.83251 0.851964 0.483372
282 1 0.888894 0.977453 0.477357
250 1 0.979839 0.869114 0.458587
711 2 0.0828097 0.0840144 0.503955
215 1 0.999789 0.26789 0.498888
272 1 0.240504 0.0498423 0.484766
742 2 0.455803 0.0785053 0.501099
259 1 0.214697 0.214585 0.500095
269 1 0.367065 0.207358 0.487581
264 1 0.702495 0.94068 0.467586
289 1 0.796629 0.0993692 0.493617
219 1 0.573182 0.18799 0.48294
734 2 0.698088 0.159064 0.463541
308 1 0.735593 0.183846 0.536075
804 2 0.880826 0.983299 0.523214
704 2 0.934244 0.134799 0.486854
781 2 0.100853 0.223646 0.526331
732 2 0.128775 0.351761 0.508034
740 2 0.997407 0.400176 0.518194
285 1 0.320441 0.344876 0.506975
204 1 0.496438 0.468055 0.477013
258 1 0.24887 0.45249 0.526442
218 1 0.655703 0.355594 0.460675
721 2 0.466803 0.32024 0.488501
260 1 0.668498 0.341532 0.502356
300 1 0.707029 0.499373 0.472439
759 2 0.844089 0.292622 0.520939
739 2 0.804427 0.383138 0.489363
762 2 0.210194 0.615489 0.49091
785 2 0.0435933 0.550284 0.526874
701 2 0.0105273 0.630716 0.481756
793 2 0.0140241 0.696032 0.543982
695 2 0.366495 0.56946 0.489324
766 2 0.429118 0.638067 0.519131
227 1 0.485348 0.65893 0.467903
249 1 0.517378 0.451036 0.516025
314 1 0.600968 0.570755 0.488417
823 2 0.656607 0.492373 0.525166
754 2 0.758474 0.611121 0.498594
230 1 0.908281 0.550055 0.500249
663 2 0.903657 0.7378 0.49377
262 1 0.85782 0.627041 0.534772
290 1 0.149027 0.936244 0.524475
747 2 0.149452 0.911418 0.485327
726 2 0.0809196 0.773206 0.479992
780 2 0.13659 0.741694 0.513594
287 1 0.389279 0.922963 0.504626
735 2 0.276946 0.825262 0.509148
235 1 0.627835 0.0304999 0.494305
214 1 0.501701 0.79653 0.489016
309 1 0.741844 0.754444 0.505168
770 2 -0.00212024 0.878916 0.509389
668 2 0.743069 0.94355 0.504704
757 2 0.0637493 0.984099 0.553015
799 2 0.168712 0.969351 0.578129
302 1 0.135956 0.2773 0.568417
728 2 0.248718 0.0792657 0.525592
281 1 0.0544032 0.145464 0.556148
310 1 0.297081 0.953643 0.54371
263 1 0.358198 0.111747 0.552266
764 2 0.19962 0.106116 0.558628
366 1 0.425049 0.221787 0.52586
778 2 0.605797 0.148507 0.523946
809 2 0.569367 0.123391 0.561416
824 2 0.744888 0.00705614 0.542093
268 1 0.714607 0.0663146 0.573022
729 2 0.929821 0.162251 0.529948
277 1 0.906399 0.0662269 0.559266
320 1 0.843816 0.20833 0.569642
315 1 0.117702 0.411188 0.542137
295 1 0.9937 0.323756 0.549101
298 1 0.0668308 0.391681 0.582515
357 1 0.275063 0.288147 0.540429
228 1 0.396595 0.411088 0.539482
254 1 0.442736 0.376895 0.578467
811 2 0.285145 0.392417 0.568808
299 1 0.451194 0.207322 0.575792
270 1 0.535729 0.280441 0.545107
274 1 0.635054 0.284559 0.574661
761 2 0.727261 0.324331 0.546472
694 2 0.549005 0.417106 0.555918
769 2 0.564226 0.447578 0.597181
244 1 0.953927 0.482907 0.552092
294 1 0.946506 0.266649 0.594195
765 2 0.84817 0.387562 0.566613
795 2 0.705792 0.416745 0.575616
278 1 0.182809 0.622292 0.53152
283 1 0.195046 0.519902 0.57749
775 2 0.164356 0.689928 0.567327
752 2 0.300019 0.712479 0.53904
748 2 0.330647 0.547086 0.546401
267 1 0.330496 0.661226 0.576814
322 1 0.503198 0.571693 0.548007
288 1 0.452274 0.745962 0.575556
744 2 0.809493 0.463224 0.52368
731 2 0.584689 0.670601 0.518812
245 1 0.712219 0.651887 0.535685
750 2 0.646109 0.560836 0.563825
192 1 0.0515388 0.556156 0.568428
730 2 0.986522 0.716656 0.585723
790 2 0.817407 0.531706 0.569125
306 1 0.848894 0.756177 0.569602
865 2 0.833252 0.805041 0.529618
256 1 0.0800174 0.837643 0.55379
751 2 0.220081 0.826674 0.559115
280 1 0.107569 0.831737 0.601362
210 1 0.513816 0.809822 0.543535
266 1 0.420262 0.914362 0.564613
279 1 0.547939 0.907039 0.513528
798 2 0.476363 0.0200549 0.536407
273 1 0.623378 0.738804 0.56299
372 1 0.576074 0.92628 0.566195
783 2 0.688563 0.842358 0.540679
243 1 0.996162 0.986167 0.587107
789 2 0.902557 0.913778 0.55581
291 1 0.75933 0.914244 0.573658
802 2 0.167894 0.182266 0.64246
871 2 0.988136 0.124311 0.606518
349 1 0.159257 0.0999957 0.599085
319 1 0.338085 0.0911267 0.594062
803 2 0.254143 0.0543267 0.624788
292 1 0.324734 0.231671 0.626144
276 1 0.414292 0.142226 0.647002
348 1 0.493586 0.0603305 0.590021
758 2 0.654949 0.162088 0.60386
304 1 0.794814 0.139262 0.611059
794 2 0.485898 0.211665 0.61491
374 1 0.568167 0.0386871 0.628761
286 1 0.854965 0.992374 0.603558
817 2 0.868186 0.091041 0.64841
782 2 0.280115 0.236066 0.577419
891 2 0.243276 0.359027 0.644019
368 1 0.190374 0.441008 0.610172
825 2 0.0812872 0.245544 0.606354
838 2 0.0734498 0.359996 0.642034
341 1 0.340763 0.356118 0.603555
241 1 0.389675 0.508877 0.591593
814 2 0.322252 0.483756 0.629561
253 1 0.474289 0.442979 0.628654
311 1 0.652289 0.332749 0.611873
340 1 0.682186 0.460284 0.641773
845 2 0.775251 0.300551 0.639053
776 2 0.933111 0.467892 0.59159
331 1 0.914919 0.21046 0.633809
313 1 0.81543 0.356991 0.604212
271 1 0.911935 0.39521 0.630434
813 2 0.77548 0.513578 0.606442
850 2 0.170965 0.565662 0.641711
796 2 0.1289 0.649445 0.602384
829 2 0.0304653 0.51583 0.616064
760 2 0.213027 0.734156 0.631968
864 2 0.0177193 0.647313 0.636523
860 2 0.281272 0.60876 0.612982
815 2 0.48742 0.589307 0.627293
350 1 0.526404 0.614842 0.585127
293 1 0.625527 0.572445 0.612148
226 1 0.561661 0.712349 0.612478
826 2 0.722839 0.650345 0.587208
840 2 0.743784 0.610834 0.66271
324 1 0.621325 0.686969 0.65245
808 2 0.749017 0.692837 0.624744
843 2 0.883392 0.641745 0.61116
797 2 0.872778 0.561508 0.648919
788 2 0.120565 0.979904 0.617254
800 2 0.0487109 0.825018 0.637475
832 2 0.292808 0.931924 0.6005
777 2 0.251584 0.791259 0.598652
743 2 0.381704 0.732855 0.613425
343 1 0.423479 0.982532 0.621899
818 2 0.244933 0.906145 0.639386
326 1 0.712767 0.00115413 0.607994
819 2 0.449251 0.82839 0.642122
325 1 0.500468 0.880051 0.60239
297 1 0.674148 0.796297 0.595268
849 2 0.627522 0.881006 0.629794
822 2 0.930739 0.86382 0.595001
332 1 0.90164 0.74567 0.637378
784 2 0.974356 -5.77083e-05 0.630672
301 1 0.796859 0.835412 0.614021
863 2 0.0867285 0.0601367 0.660314
861 2 0.12449 0.228492 0.705678
345 1 0.0223144 0.19496 0.662572
930 2 0.0870413 0.0611285 0.698671
416 1 0.23851 0.121756 0.715325
787 2 0.276499 0.191692 0.674825
801 2 0.426909 0.23772 0.685151
900 2 0.377694 0.0676434 0.691037
812 2 0.586884 0.23251 0.690807
333 1 0.515422 0.0978553 0.676064
353 1 0.72434 0.0306481 0.644929
335 1 0.633592 0.184547 0.648016
859 2 0.716773 0.103943 0.711503
807 2 0.948802 0.12328 0.693814
827 2 0.738402 0.243082 0.681204
365 1 0.802452 0.05556 0.681663
821 2 0.192757 0.453165 0.668904
771 2 0.179522 0.300021 0.675927
386 1 0.0622881 0.375402 0.683991
848 2 0.205178 0.41849 0.706741
376 1 0.401723 0.328593 0.651609
862 2 0.517533 0.372893 0.67726
896 2 0.318885 0.386636 0.685011
328 1 0.574153 0.322255 0.644135
248 1 0.663862 0.389678 0.674515
303 1 0.924005 0.320512 0.669584
773 2 0.819406 0.429533 0.662821
839 2 0.958256 0.446716 0.704078
836 2 0.105208 0.696371 0.667315
355 1 0.0734983 0.577052 0.692655
334 1 0.997039 0.488358 0.666023
473 1 0.236956 0.722602 0.697971
364 1 0.356592 0.524145 0.666459
842 2 0.273894 0.652424 0.660916
831 2 0.420574 0.69001 0.664352
424 1 0.220861 0.569361 0.69371
362 1 0.38131 0.644141 0.701874
872 2 0.630324 0.537618 0.680345
847 2 0.512736 0.515614 0.660809
360 1 0.577545 0.667133 0.693065
873 2 0.822017 0.557716 0.692658
379 1 0.944486 0.628833 0.676102
346 1 0.232517 0.0355435 0.666395
867 2 0.0721187 0.848276 0.674677
874 2 0.37404 0.963624 0.660751
316 1 0.404869 0.929882 0.700338
756 2 0.317631 0.809283 0.671536
317 1 0.508964 0.810924 0.694873
342 1 0.681686 0.949275 0.705283
327 1 0.552427 0.929928 0.672047
909 2 0.664671 0.805345 0.679494
305 1 0.785313 0.914875 0.660668
252 1 0.925085 0.798949 0.673646
810 2 0.928777 0.955458 0.666288
854 2 0.816236 0.867847 0.700714
358 1 0.77915 0.751924 0.65827
846 2 0.989057 0.936588 0.703574
359 1 0.114026 0.125567 0.73333
880 2 0.317591 0.152722 0.753783
377 1 0.0255763 0.00753397 0.739482
323 1 0.462084 0.0389622 0.744277
851 2 0.399152 0.177921 0.723102
837 2 0.688113 0.0164551 0.752585
443 1 0.542635 0.00484713 0.71151
337 1 0.847883 0.0206914 0.719711
361 1 0.957226 0.158591 0.731016
853 2 0.810525 0.150329 0.740537
410 1 0.901406 0.28235 0.764139
387 1 0.0390571 0.309944 0.733594
338 1 0.278068 0.273247 0.714354
835 2 0.197621 0.357365 0.743174
990 2 0.116655 0.247965 0.761963
834 2 0.490854 0.314644 0.718438
858 2 0.36487 0.418033 0.735681
828 2 0.508284 0.233247 0.756783
816 2 0.807261 0.281786 0.722176
390 1 0.653843 0.303076 0.746359
901 2 0.550145 0.428433 0.754172
375 1 0.57841 0.169815 0.726901
844 2 0.573894 0.458241 0.711409
370 1 0.948373 0.286872 0.702656
422 1 0.868752 0.428191 0.731869
855 2 0.080713 0.462131 0.728333
881 2 0.216985 0.533853 0.740748
805 2 0.134529 0.537256 0.769196
384 1 0.137567 0.664959 0.725946
879 2 0.193117 0.706737 0.761363
820 2 0.30444 0.656324 0.735547
367 1 0.52813 0.578697 0.733626
768 2 0.429636 0.485633 0.700228
430 1 0.701955 0.590028 0.712143
935 2 0.716568 0.461079 0.745161
889 2 0.708378 0.488188 0.785526
391 1 0.597623 0.71124 0.763599
389 1 0.821315 0.713545 0.710672
875 2 1.00059 0.564364 0.749893
397 1 0.743315 0.409238 0.704234
423 1 0.932677 0.594059 0.718564
898 2 0.741041 0.701423 0.747198
870 2 0.91091 0.768265 0.7632
869 2 0.235381 0.921376 0.692867
852 2 0.21676 0.974414 0.730621
398 1 0.0956553 0.829732 0.713903
420 1 0.23368 0.825644 0.733192
942 2 0.0503177 0.801402 0.753573
347 1 0.371604 0.792609 0.709702
318 1 0.352601 0.90928 0.739776
396 1 0.468241 0.739351 0.741112
339 1 0.512406 0.888904 0.732545
897 2 0.639955 0.862422 0.760697
886 2 0.644957 0.789282 0.725582
330 1 0.930399 0.877499 0.733656
892 2 0.992616 0.729184 0.716111
411 1 0.958601 0.931858 0.773453
921 2 0.148617 0.110776 0.77802
895 2 0.0302959 0.21351 0.795265
425 1 0.138147 0.0158522 0.821943
407 1 0.274403 0.085268 0.801295
373 1 0.412384 0.11156 0.77958
363 1 0.316259 0.993699 0.770569
429 1 0.457598 0.273804 0.794713
462 1 0.502632 0.0898025 0.812626
408 1 0.256588 0.225712 0.784529
307 1 0.552089 0.984653 0.780616
449 1 0.59173 0.121961 0.764558
385 1 0.752475 0.131061 0.778997
884 2 0.690358 0.0603505 0.816076
481 1 0.604917 0.189608 0.804137
882 2 0.825891 0.998838 0.759782
830 2 0.98378 0.115842 0.766009
356 1 0.866561 0.166175 0.798091
421 1 0.822675 0.981366 0.820607
413 1 0.943703 0.431639 0.814446
441 1 0.23944 0.460576 0.790204
893 2 0.043288 0.392413 0.771519
916 2 0.0725516 0.330785 0.821547
984 2 0.305963 0.335813 0.811303
312 1 0.36962 0.289217 0.755483
378 1 0.396832 0.467437 0.771599
380 1 0.590863 0.334623 0.782881
417 1 0.656726 0.433109 0.824651
460 1 0.76028 0.329045 0.777154
329 1 0.904159 0.452387 0.777457
912 2 0.236592 0.584699 0.818553
972 2 0.040916 0.670398 0.775663
393 1 0.0310254 0.535226 0.795777
833 2 0.363626 0.735185 0.765689
877 2 0.279041 0.728525 0.803605
841 2 0.301862 0.590257 0.774917
857 2 0.373589 0.516712 0.803161
910 2 0.45318 0.624601 0.783526
405 1 0.537415 0.501589 0.785481
381 1 0.684928 0.644691 0.799365
404 1 0.763682 0.775721 0.780542
933 2 0.770807 0.565902 0.823327
414 1 0.861332 0.622521 0.779063
351 1 0.958121 0.784247 0.800876
856 2 0.80912 0.718156 0.823387
344 1 0.118177 0.766626 0.810062
352 1 0.125583 0.923389 0.767336
22 1 0.232987 0.87332 0.816893
412 1 0.401238 0.977201 0.808503
924 2 0.439815 0.882843 0.770736
941 2 0.263182 0.834842 0.777138
383 1 0.414511 0.79968 0.811799
354 1 0.7121 0.949077 0.78854
400 1 0.570311 0.806233 0.794647
925 2 0.541976 0.927519 0.82718
382 1 0.779238 0.851702 0.740009
920 2 0.68303 0.809008 0.819419
899 2 0.935644 0.0311119 0.803568
392 1 0.837771 0.892751 0.794427
457 1 0.151834 0.174764 0.816826
956 2 0.194994 0.121002 0.865004
483 1 0.010782 0.0349484 0.873187
968 2 0.0685497 0.20678 0.85603
934 2 0.197445 0.283768 0.848153
928 2 0.323036 0.176894 0.836561
954 2 0.298778 0.0192715 0.838035
786 2 0.479274 0.22394 0.832794
452 1 0.364969 0.0912391 0.870484
336 1 0.487565 0.0678184 0.84794
369 1 0.685196 0.939912 0.844539
868 2 0.620268 0.173372 0.851215
938 2 0.698851 0.0579749 0.865895
497 1 0.00685856 0.128043 0.828128
976 2 0.851933 0.104425 0.842282
953 2 0.807049 0.189682 0.87046
922 2 0.82674 0.944931 0.85987
476 1 0.0699753 0.308816 0.881072
426 1 0.0742191 0.470508 0.837919
388 1 0.23163 0.428396 0.83198
418 1 0.221725 0.415304 0.87849
434 1 0.510696 0.36298 0.820102
501 2 0.358813 0.320326 0.849802
32 1 0.44835 0.423575 0.867953
806 2 0.732752 0.258146 0.825989
883 2 0.501935 0.522729 0.837169
949 2 0.597755 0.321201 0.852517
876 2 0.804033 0.411617 0.821499
964 2 0.914272 0.276794 0.826451
435 1 0.896683 0.297305 0.861573
955 2 0.820322 0.452076 0.863686
431 1 0.980748 0.418981 0.87019
371 1 0.192748 0.564868 0.857945
905 2 0.0950497 0.614451 0.825825
402 1 0.992617 0.56489 0.876972
470 1 0.0396064 0.693588 0.868131
915 2 0.547357 0.665779 0.816852
440 1 0.51526 0.591834 0.87173
932 2 0.339802 0.533226 0.85944
878 2 0.268682 0.625459 0.885868
913 2 0.391055 0.628088 0.828247
919 2 0.674879 0.687432 0.846065
975 2 0.703088 0.548016 0.860255
966 2 0.913822 0.55184 0.835087
944 2 0.973349 0.720275 0.83507
395 1 0.835419 0.641729 0.856026
461 1 0.971499 0.875592 0.869359
890 2 0.155858 0.788986 0.846595
453 1 0.112239 0.927427 0.854111
894 2 0.305701 0.763838 0.845052
940 2 0.422801 0.743561 0.871589
401 1 0.402647 0.89736 0.847269
866 2 0.261442 0.891924 0.881817
445 1 0.595078 0.827558 0.904409
937 2 0.409591 0.925099 0.886925
887 2 0.578203 0.897079 0.86808
917 2 0.523341 0.762776 0.847221
415 1 0.735464 0.822368 0.861053
406 1 0.0619781 0.89685 0.802845
394 1 0.89325 0.845747 0.834722
911 2 0.967816 0.985128 0.841988
428 1 0.135877 0.992606 0.891311
929 2 0.0485554 0.265598 0.941912
451 1 0.126139 0.156298 0.902001
996 2 0.949099 0.155327 0.893011
403 1 0.287434 0.185469 0.895219
463 1 0.466229 0.251034 0.878025
970 2 0.244056 0.0582847 0.909032
474 1 0.421484 0.211484 0.918947
923 2 0.409554 0.0478047 0.918533
444 1 0.296247 0.0454746 0.946221
399 1 0.52155 0.117571 0.894172
484 1 0.642538 0.149341 0.955383
450 1 0.625192 0.213692 0.897441
904 2 0.709545 0.0831722 0.905017
950 2 0.535423 0.237367 0.939729
30 1 0.843412 0.0534135 0.882582
427 1 0.835067 0.205713 0.920591
437 1 0.0144958 0.0822708 0.928055
906 2 0.0804714 0.428527 0.900383
419 1 0.175153 0.286676 0.918949
995 2 0.260901 0.186347 0.938654