ITEM: TIMESTEP
3370
ITEM: NUMBER OF ATOMS
1000
ITEM: BOX BOUNDS pp pp pp
0.0000000000000000e+00 6.2996052494743662e+00
0.0000000000000000e+00 6.2996052494743662e+00
0.0000000000000000e+00 2.5198420997897465e+01
ITEM: ATOMS id type xs ys zs
502 2 0.0625576 0.939954 0.0251852
11 1 0.0918205 0.118758 0.0455141
951 2 0.182161 0.0447053 0.0161297
12 1 0.344001 0.061701 0.051743
58 1 0.46531 0.157289 0.0529283
522 2 0.427697 0.0337905 0.0151931
983 2 0.670006 0.155172 0.0376911
503 2 0.779603 1.00082 0.0480834
504 2 0.654487 0.0068231 0.0240403
31 1 0.881047 0.12429 0.00102564
485 1 0.839043 0.247044 0.0302536
510 2 0.166747 0.378166 0.0489412
992 2 0.141968 0.373795 0.00748539
487 1 0.0476102 0.244263 0.00694932
13 1 0.188938 0.226892 0.0241132
518 2 0.318277 0.367858 0.0238909
512 2 0.361924 0.234048 0.0324144
489 1 0.480598 0.20369 0.00670123
484 1 0.767821 0.396813 0.999718
33 1 0.577757 0.299865 0.0267994
514 2 0.629253 0.509243 0.9946
977 2 0.0241191 0.291229 0.047375
985 2 0.700477 0.352319 0.0436984
981 2 0.90045 0.384278 0.0373274
490 1 0.907946 0.266054 0.991368
511 2 0.113979 0.503265 0.0297956
540 2 0.143937 0.761586 0.0551388
545 2 0.218957 0.541311 0.0534314
70 1 0.0883624 0.66145 0.0272167
516 2 0.229454 0.5708 0.00422399
963 2 0.465301 0.353982 0.99741
18 1 0.338798 0.591591 0.030341
519 2 0.489554 0.62323 0.0392338
524 2 0.654544 0.646288 0.0187312
4 1 0.518367 0.669564 1.00055
15 1 0.706615 0.512312 0.0326235
45 1 0.813405 0.667775 0.0404479
10 1 0.890346 0.545258 0.0359312
100 1 0.972518 0.680302 0.050223
544 2 0.116076 0.819392 0.00701653
525 2 0.213358 0.907744 0.0430628
75 1 0.0107954 0.834027 0.0584874
47 1 0.227641 0.713125 0.0299811
3 1 0.390359 0.751555 0.0471934
27 1 0.390892 0.8994 0.0322277
997 2 0.366338 0.763989 0.0117238
9 1 0.521477 0.833102 0.0183429
976 2 0.812855 0.930688 0.017308
29 1 0.718727 0.78379 0.0251657
5 1 0.937628 0.0786922 0.0367167
30 1 0.968969 0.810127 0.0226709
37 1 0.202094 0.0635698 0.0748372
51 1 0.152374 0.19199 0.105629
530 2 0.0044817 0.0744777 0.0914293
526 2 0.453921 0.0304083 0.0820007
36 1 0.310062 0.96283 0.0840414
52 1 0.448221 0.031733 0.119737
506 2 0.356053 0.167768 0.0840015
14 1 0.583391 0.249468 0.0604285
528 2 0.520743 0.17406 0.092682
508 2 0.609896 0.0958104 0.0665965
59 1 0.722018 0.113536 0.0967003
521 2 0.934913 0.172232 0.0616711
529 2 0.777286 0.150826 0.0623336
35 1 0.0339752 0.268195 0.0868489
7 1 0.258477 0.259231 0.0609864
56 1 0.269581 0.323863 0.112377
61 1 0.14286 0.35278 0.0906681
517 2 0.286733 0.389601 0.0749106
538 2 0.470601 0.372672 0.0647212
49 1 0.585411 0.447481 0.0520653
513 2 0.801571 0.437592 0.0751052
533 2 0.813605 0.230711 0.102653
559 2 0.629933 0.395779 0.089563
509 2 0.884005 0.31324 0.0699441
89 1 0.94052 0.415866 0.0974253
40 1 0.00883729 0.440854 0.0559889
38 1 0.190543 0.533004 0.104764
564 2 0.0988008 0.62141 0.0748959
23 1 0.473552 0.718752 0.0897775
42 1 0.262588 0.642332 0.077556
537 2 0.358051 0.500147 0.103949
43 1 0.366152 0.528251 0.0673061
547 2 0.336487 0.696984 0.114149
50 1 0.671148 0.553085 0.0698597
998 2 0.52454 0.516476 0.0923755
539 2 0.696496 0.576589 0.107027
543 2 0.631991 0.707954 0.0866712
39 1 0.941687 0.565996 0.0805242
549 2 0.773485 0.714972 0.0754868
542 2 0.21185 0.863782 0.109028
55 1 0.0738302 0.944317 0.0901455
550 2 0.28562 0.803876 0.0682318
546 2 0.419736 0.871012 0.0746931
28 1 0.521966 0.0109896 0.0462084
523 2 0.575439 0.776877 0.0495755
548 2 0.672254 0.894067 0.0590702
572 2 0.55312 0.891711 0.0814883
505 2 0.850355 0.82732 0.0460738
534 2 0.880075 0.0236604 0.0727448
69 1 0.111909 0.78364 0.0879258
551 2 0.202147 0.0841081 0.149081
555 2 0.0549408 0.133734 0.13141
532 2 0.294684 0.121944 0.121637
552 2 0.46738 0.214087 0.139525
53 1 0.367029 0.126763 0.154845
77 1 0.285218 0.242289 0.144376
527 2 0.61358 0.0112763 0.100689
54 1 0.625357 0.125551 0.128296
34 1 0.949049 0.247829 0.115611
80 1 0.882205 0.104656 0.11543
99 1 0.76725 0.198437 0.142017
65 1 0.108619 0.322682 0.135029
86 1 0.0478788 0.475248 0.124719
531 2 0.206325 0.426051 0.135029
556 2 0.185526 0.335284 0.168677
63 1 0.400784 0.304861 0.0947509
62 1 0.364291 0.39092 0.135524
557 2 0.45171 0.399195 0.168583
558 2 0.529302 0.360353 0.123663
562 2 0.510803 0.53784 0.129937
553 2 0.653817 0.268155 0.11386
88 1 0.689784 0.438108 0.120483
84 1 0.777001 0.332643 0.160628
60 1 0.945691 0.309621 0.155182
535 2 0.822283 0.418569 0.124812
41 1 0.105796 0.566909 0.147913
570 2 0.166389 0.675528 0.122948
66 1 0.960163 0.576069 0.156708
541 2 0.120873 0.682261 0.173813
91 1 0.285654 0.573449 0.139473
536 2 0.430582 0.685791 0.148984
116 1 0.432296 0.541678 0.164314
68 1 0.574818 0.691798 0.125973
44 1 0.699899 0.799003 0.151611
563 2 0.747496 0.628819 0.154408
93 1 0.486572 0.792583 0.16786
560 2 0.995257 0.662204 0.122172
565 2 0.922881 0.724177 0.0918693
90 1 0.834651 0.506808 0.155568
64 1 0.855376 0.571435 0.113325
26 1 0.166322 0.0321989 0.110162
71 1 0.0672871 0.818183 0.129663
571 2 0.354313 0.924724 0.124935
48 1 0.435484 0.788863 0.121281
567 2 0.336454 0.8604 0.159651
72 1 0.251378 0.722423 0.158531
97 1 0.197696 0.878734 0.14419
73 1 0.607054 0.85371 0.118235
98 1 0.528601 0.955531 0.142502
569 2 0.6315 0.908633 0.172971
78 1 0.702212 0.973198 0.139703
573 2 0.767162 0.966876 0.101122
574 2 0.905906 0.891032 0.0875663
76 1 0.0396103 0.975756 0.1299
74 1 0.743886 0.768299 0.109734
575 2 0.928665 0.868699 0.122673
125 1 0.805048 0.900076 0.168333
600 2 0.869425 0.00281938 0.145958
576 2 0.16095 0.0990442 0.185761
106 1 0.0579724 0.168622 0.207386
82 1 0.300287 0.00429114 0.176113
605 2 0.0143956 0.0623724 0.186819
601 2 0.100431 0.0105869 0.218183
83 1 0.445131 0.112547 0.19085
581 2 0.221479 0.228191 0.192392
602 2 0.378336 0.0240684 0.221957
577 2 0.599736 0.0836157 0.177003
554 2 0.593161 0.288376 0.159683
578 2 0.596061 0.15752 0.21182
104 1 0.774545 0.0955496 0.212867
604 2 0.893073 0.206776 0.19158
598 2 0.933116 0.162842 0.153036
599 2 0.859022 0.951726 0.202653
610 2 0.163921 0.397605 0.205976
611 2 0.247394 0.448276 0.233536
561 2 0.302774 0.444671 0.171689
57 1 0.414541 0.244065 0.178104
92 1 0.592873 0.461085 0.156507
109 1 0.695177 0.390742 0.201285
112 1 0.529406 0.306058 0.196901
579 2 0.701168 0.250646 0.19931
94 1 0.858627 0.395646 0.188291
85 1 0.018058 0.397895 0.176628
584 2 0.906383 0.499275 0.228592
585 2 0.0205702 0.334853 0.210415
81 1 0.0659258 0.216339 0.170221
590 2 0.126614 0.529882 0.184572
595 2 0.0838422 0.679083 0.222334
96 1 0.969018 0.718541 0.182154
121 1 0.916002 0.689019 0.220386
615 2 0.0561759 0.518697 0.218308
607 2 0.352338 0.520446 0.21026
591 2 0.275056 0.609336 0.182131
592 2 0.461546 0.624761 0.204005
122 1 0.304417 0.698297 0.226883
586 2 0.514537 0.461899 0.201573
589 2 0.721248 0.54782 0.190297
113 1 0.606415 0.646581 0.216819
587 2 0.58866 0.607751 0.177538
614 2 0.62637 0.749999 0.182814
588 2 0.859687 0.610984 0.186102
95 1 0.856247 0.690854 0.135095
120 1 0.785827 0.761399 0.193495
566 2 0.221231 0.819368 0.190396
596 2 0.0848014 0.828661 0.201229
101 1 0.108201 0.929775 0.171486
102 1 0.265974 0.934225 0.211265
67 1 0.357129 0.764114 0.194833
597 2 0.464275 0.944793 0.178936
622 2 0.411079 0.880497 0.219378
568 2 0.557573 0.847356 0.205371
593 2 0.685505 0.962169 0.20206
79 1 0.773354 0.0676876 0.172509
103 1 0.537495 0.996323 0.212146
580 2 0.965019 0.910524 0.178137
105 1 0.955779 0.871687 0.22244
582 2 0.242891 0.116453 0.21508
606 2 0.108444 0.120199 0.245955
137 1 0.224421 0.264558 0.233113
152 1 0.198761 0.999279 0.251503
107 1 0.348676 0.974726 0.260543
108 1 0.374926 0.198922 0.215386
603 2 0.492813 0.107392 0.237222
132 1 0.259205 0.25986 0.269521
128 1 0.314269 0.140687 0.248726
647 2 0.369742 0.0461343 0.296504
124 1 0.808237 0.981419 0.234789
134 1 0.666864 0.25313 0.235266
130 1 0.74878 0.0583932 0.271255
129 1 0.593779 0.0933298 0.272365
110 1 0.920881 0.11327 0.226825
150 1 0.912494 0.0593584 0.275594
135 1 0.821827 0.166894 0.261096
136 1 0.15893 0.371465 0.279722
140 1 0.0947431 0.394931 0.245424
87 1 0.365662 0.366096 0.208712
608 2 0.478239 0.469354 0.266095
612 2 0.323734 0.452572 0.267506
632 2 0.375143 0.337984 0.246233
583 2 0.51148 0.260747 0.234181
139 1 0.599482 0.42639 0.237537
119 1 0.651198 0.399708 0.272426
634 2 0.573586 0.261196 0.26944
609 2 0.825219 0.313117 0.218117
639 2 0.75686 0.479031 0.231033
145 1 0.915347 0.348922 0.253888
126 1 0.971358 0.204208 0.256248
635 2 0.765482 0.333683 0.253693
111 1 0.205133 0.569894 0.219858
616 2 0.174178 0.72654 0.25024
617 2 0.110982 0.541399 0.255189
641 2 0.0118249 0.668212 0.284227
642 2 0.175729 0.715908 0.28884
117 1 0.280465 0.621804 0.255444
613 2 0.44461 0.601055 0.247979
148 1 0.474377 0.728131 0.277729
114 1 0.59906 0.568435 0.251412
618 2 0.689402 0.722395 0.252627
141 1 0.990384 0.612637 0.248804
115 1 0.774319 0.630254 0.220769
166 1 0.851564 0.553821 0.260185
619 2 0.706399 0.55225 0.276628
146 1 0.848844 0.696093 0.257033
621 2 0.139842 0.848419 0.233001
625 2 0.0224975 0.7874 0.2563
650 2 0.0357637 0.971068 0.249654
172 1 0.178321 0.856628 0.270432
127 1 0.507767 0.959223 0.249079
118 1 0.525001 0.739139 0.238907
147 1 0.391484 0.821918 0.252352
594 2 0.806173 0.825936 0.235524
123 1 0.6397 0.879097 0.234344
623 2 0.652177 0.0514966 0.238477
624 2 0.585157 0.835166 0.270806
649 2 0.906815 0.902722 0.265643
626 2 0.0897607 0.0528677 0.281778
157 1 0.228649 0.103576 0.283487
651 2 0.13936 0.133012 0.320519
652 2 0.245318 0.0676231 0.343885
133 1 0.436516 0.167542 0.273409
153 1 0.368768 0.964562 0.331693
158 1 0.356363 0.173763 0.325545
628 2 0.54756 0.114534 0.307908
629 2 0.710464 0.0664542 0.321702
164 1 0.611892 0.182305 0.335896
160 1 0.702438 0.216398 0.303501
630 2 0.843948 0.124719 0.305731
131 1 0.955871 0.223393 0.320271
151 1 0.988622 0.0420895 0.314926
155 1 0.830221 0.944063 0.297573
655 2 0.805188 0.158858 0.344475
180 1 0.857642 0.0226515 0.337494
631 2 0.0913804 0.443653 0.323527
637 2 0.087053 0.207067 0.28938
156 1 0.104336 0.281936 0.33063
657 2 0.239352 0.327867 0.31013
138 1 0.419303 0.429352 0.30778
162 1 0.226772 0.507553 0.297485
163 1 0.371911 0.285829 0.291597
658 2 0.47433 0.240796 0.355144
188 1 0.362097 0.32899 0.33673
633 2 0.521284 0.288253 0.311154
169 1 0.690787 0.375773 0.310361
638 2 0.568304 0.477644 0.309836
640 2 0.00543172 0.329104 0.287524
165 1 0.845148 0.313753 0.31117
161 1 0.933097 0.438238 0.315147
660 2 0.879415 0.280222 0.353214
665 2 0.831199 0.422689 0.284666
185 1 0.784102 0.441153 0.333075
167 1 0.111515 0.582096 0.314968
636 2 -0.00376459 0.501251 0.283575
661 2 0.00389399 0.571833 0.346047
667 2 0.219006 0.680757 0.335665
142 1 0.394207 0.602506 0.291226
168 1 0.35956 0.691057 0.325307
662 2 0.286872 0.527289 0.333368
672 2 0.324616 0.79038 0.288119
143 1 0.555345 0.596289 0.290143
144 1 0.655476 0.725475 0.2971
173 1 0.517708 0.768335 0.318533
170 1 0.618502 0.644304 0.328073
620 2 0.884098 0.592622 0.296849
171 1 0.948746 0.743831 0.323035
195 1 0.789957 0.753839 0.312753
645 2 0.755935 0.562567 0.311876
666 2 0.846675 0.645484 0.334432
671 2 0.124628 0.956189 0.325622
197 1 0.111039 0.812662 0.318139
627 2 0.237106 0.962037 0.295818
648 2 0.432208 0.89439 0.29717
177 1 0.26058 0.836093 0.323904
198 1 0.406656 0.819439 0.347133
149 1 0.623489 0.815901 0.343593
644 2 0.751149 0.879476 0.270255
154 1 0.582939 0.956857 0.296183
646 2 0.890644 0.785776 0.286496
196 1 0.982662 0.909227 0.341263
670 2 0.701712 0.905843 0.315459
175 1 0.0143958 0.903233 0.29742
176 1 0.112269 0.0243303 0.361785
677 2 0.149312 0.170851 0.370589
681 2 0.0332895 0.116842 0.39145
653 2 0.460206 0.0952346 0.343542
183 1 0.240175 0.245065 0.341291
208 1 0.452419 0.206236 0.396073
178 1 0.351156 0.110029 0.370714
159 1 0.592147 0.228689 0.377138
654 2 0.679573 0.0667505 0.358514
679 2 0.771822 0.2124 0.384447
179 1 0.537172 0.0689912 0.377294
680 2 0.997996 0.150742 0.354779
699 2 0.892925 0.0973116 0.377462
206 1 0.91429 0.126886 0.419675
182 1 0.0580472 0.317826 0.369209
187 1 0.170953 0.400543 0.358122
212 1 0.116343 0.408979 0.40217
682 2 0.295513 0.258339 0.379867
683 2 0.505661 0.350925 0.400807
687 2 0.254422 0.484078 0.387316
688 2 0.383995 0.419805 0.37232
663 2 0.53676 0.376534 0.351559
190 1 0.701557 0.294441 0.355703
664 2 0.641704 0.51407 0.350808
184 1 0.674452 0.334723 0.394388
656 2 0.923845 0.43082 0.355481
659 2 0.778379 0.420453 0.373005
181 1 0.927072 0.251845 0.396699
192 1 0.0526236 0.708735 0.347599
686 2 0.013404 0.552582 0.383765
691 2 0.0825011 0.694164 0.389895
217 1 0.167563 0.587233 0.366839
717 2 0.270846 0.656878 0.393137
193 1 0.505527 0.66623 0.353718
692 2 0.34698 0.634239 0.361268
218 1 0.461952 0.567913 0.39114
643 2 0.444425 0.513126 0.342196
189 1 0.608177 0.464362 0.388277
693 2 0.553467 0.706788 0.392921
194 1 0.689416 0.777641 0.403708
186 1 0.829204 0.569428 0.370107
669 2 0.74258 0.754334 0.366099
191 1 0.924668 0.777004 0.369873
690 2 0.66268 0.632397 0.372069
200 1 0.814168 0.683586 0.393155
676 2 0.230013 0.925881 0.360097
696 2 0.0670041 0.84993 0.364231
201 1 0.168707 0.0564357 0.399779
222 1 0.231519 0.778122 0.36188
697 2 0.287236 0.829106 0.40697
698 2 0.433797 0.953023 0.376025
223 1 0.395212 0.74841 0.381818
673 2 0.533602 0.968623 0.343616
174 1 0.717096 0.918748 0.359329
668 2 0.556761 0.834837 0.376168
204 1 0.610307 0.953458 0.395915
199 1 0.817137 0.895756 0.393749
674 2 0.847525 0.846335 0.341932
675 2 0.948434 0.964845 0.376394
221 1 0.972632 0.831188 0.400993
202 1 0.233643 0.0512821 0.460365
207 1 0.269544 0.16519 0.410158
232 1 0.272845 0.209702 0.454407
701 2 0.0587745 -0.00220128 0.478587
706 2 0.0715196 0.130316 0.434286
203 1 0.310113 0.989059 0.405038
703 2 0.470373 0.0850085 0.419077
708 2 0.413298 0.0999248 0.457791
678 2 0.610023 0.148499 0.40874
209 1 0.729314 0.213793 0.434854
704 2 0.551062 0.163736 0.4712
229 1 0.633272 0.10233 0.44211
230 1 0.685184 0.121358 0.480897
700 2 0.00568756 -0.00111871 0.413172
231 1 0.955721 0.122882 0.460982
205 1 0.768503 0.0826775 0.404322
705 2 0.787893 0.0580665 0.447462
236 1 0.115514 0.288165 0.453126
237 1 0.125773 0.244765 0.407915
711 2 0.0763046 0.442208 0.442964
712 2 0.244846 0.394719 0.427959
213 1 0.377801 0.462739 0.412159
233 1 0.40994 0.250309 0.463429
238 1 0.417754 0.383151 0.443998
707 2 0.352494 0.288226 0.416855
214 1 0.486779 0.220341 0.433958
684 2 0.517167 0.458487 0.427028
709 2 0.743211 0.415719 0.442917
215 1 0.737266 0.520271 0.406379
714 2 0.637111 0.525676 0.445089
234 1 0.613791 0.315027 0.436851
210 1 0.812163 0.354124 0.406857
211 1 0.944449 0.411371 0.392712
685 2 0.890741 0.549812 0.409074
235 1 0.860331 0.260867 0.440926
240 1 0.76534 0.553698 0.465493
710 2 0.0046012 0.306339 0.423118
715 2 0.895391 0.479752 0.44159
695 2 0.113832 0.599315 0.419993
242 1 0.225824 0.52152 0.457851
741 2 0.228511 0.771153 0.443743
720 2 0.102921 0.783008 0.421614
246 1 0.136569 0.649195 0.455889
718 2 0.410886 0.734375 0.421115
716 2 0.274254 0.572713 0.424669
713 2 0.444061 0.593361 0.437508
243 1 0.350585 0.696612 0.453241
689 2 0.575932 0.585191 0.416742
694 2 0.724888 0.679479 0.434826
219 1 0.649162 0.643518 0.465029
244 1 0.542335 0.711597 0.443801
216 1 0.959858 0.693659 0.414798
241 1 0.00133682 0.551821 0.468596
220 1 0.894139 0.633332 0.447849
247 1 0.154346 0.898388 0.39136
721 2 0.134905 0.942445 0.435336
725 2 0.995344 0.87728 0.44156
746 2 0.0931953 0.806436 0.464691
702 2 0.365777 0.989393 0.485861
248 1 0.42356 0.817802 0.471278
722 2 0.320527 0.913764 0.443392
723 2 0.439606 0.916988 0.418834
748 2 0.517576 0.976412 0.450034
224 1 0.583117 0.854045 0.431564
719 2 0.72397 0.798613 0.460305
724 2 0.722928 0.934963 0.424873
249 1 0.586526 0.845185 0.475671
749 2 0.703331 0.967455 0.466899
225 1 0.856753 0.805344 0.432824
250 1 0.864129 0.924393 0.454682
227 1 0.212927 0.0214559 0.497832
726 2 0.13037 0.14484 0.496381
252 1 0.223903 0.118974 0.527701
251 1 0.0865984 0.974032 0.522428
276 1 0.0803616 0.131981 0.537518
228 1 0.455481 0.126392 0.501029
727 2 0.309201 0.14425 0.487643
752 2 0.369916 0.0549525 0.534909
728 2 0.520975 0.256487 0.510844
254 1 0.577876 0.99797 0.4892
729 2 0.597792 0.121564 0.516912
255 1 0.739147 0.0238508 0.509845
730 2 0.825844 0.19216 0.480384
755 2 0.982034 0.117354 0.5023
754 2 0.737792 0.186018 0.522452
257 1 0.228201 0.270376 0.492916
731 2 0.0638279 0.279855 0.498697
736 2 0.0875558 0.415713 0.481595
732 2 0.287243 0.375832 0.467478
261 1 0.160327 0.411118 0.515685
239 1 0.527135 0.358029 0.485531
733 2 0.375401 0.345046 0.496043
259 1 0.654843 0.267636 0.489378
734 2 0.812172 0.351321 0.472725
739 2 0.680909 0.404817 0.481436
264 1 0.725797 0.336574 0.517991
763 2 0.496577 0.443603 0.513072
764 2 0.64206 0.463233 0.523576
735 2 0.9776 0.306099 0.468322
260 1 0.884602 0.296993 0.507409
265 1 0.930162 0.430268 0.48533
267 1 0.106943 0.685254 0.514132
266 1 0.0324045 0.541753 0.509399
262 1 0.183052 0.530927 0.494302
737 2 0.386238 0.527621 0.480116
742 2 0.384604 0.667622 0.497986
738 2 0.506545 0.596821 0.472208
272 1 0.241463 0.691374 0.482329
268 1 0.461923 0.591217 0.531776
743 2 0.579151 0.730813 0.498804
269 1 0.602189 0.582672 0.50279
744 2 0.738468 0.671841 0.497685
769 2 0.688201 0.74672 0.527774
245 1 0.78319 0.484805 0.505568
270 1 0.753418 0.590067 0.532159
740 2 0.881793 0.59009 0.495317
745 2 0.9981 0.699042 0.484648
271 1 0.0509613 0.825092 0.521545
771 2 0.221301 0.952235 0.543662
253 1 0.472728 0.877243 0.505657
273 1 0.435422 0.758097 0.53538
747 2 0.223384 0.890567 0.47515
772 2 0.335246 0.910511 0.518331
793 2 0.257246 0.762714 0.518949
274 1 0.626846 0.903502 0.52492
774 2 0.783511 0.867797 0.497428
226 1 0.893025 0.0134757 0.48835
275 1 0.86655 0.788498 0.472288
750 2 0.979019 0.875613 0.488575
296 1 0.896464 0.718731 0.512078
775 2 0.923746 0.949526 0.52829
277 1 0.106815 0.0570086 0.576217
256 1 0.991823 0.254144 0.532525
776 2 0.0984861 0.244287 0.585568
258 1 0.33282 0.229759 0.525235
282 1 0.251236 0.196238 0.562777
283 1 0.394723 0.206885 0.578497
753 2 0.504905 0.998365 0.529068
303 1 0.425408 0.0530548 0.571147
778 2 0.492421 0.145037 0.545384
279 1 0.726007 1.0062 0.545411
308 1 0.546853 0.120934 0.596183
309 1 0.657473 0.134536 0.559315
285 1 0.694266 0.986802 0.589776
780 2 0.951606 0.103103 0.563976
799 2 0.848375 0.0903034 0.532421
310 1 0.803562 0.102777 0.578072
751 2 0.162407 0.250563 0.537107
761 2 0.153506 0.469455 0.547477
756 2 0.0721887 0.355508 0.557903
263 1 0.310081 0.468766 0.510168
758 2 0.439451 0.333691 0.536805
288 1 0.349726 0.358398 0.574676
757 2 0.276514 0.368733 0.541918
782 2 0.202393 0.363751 0.582063
284 1 0.589552 0.282078 0.541438
289 1 0.557579 0.407916 0.561648
290 1 0.728737 0.310837 0.556403
783 2 0.538502 0.27321 0.585969
314 1 0.657606 0.369364 0.596778
281 1 0.924335 0.261966 0.581413
760 2 0.994781 0.396425 0.521089
759 2 0.84465 0.223785 0.546403
765 2 0.831025 0.44265 0.543029
291 1 0.957193 0.484454 0.562849
785 2 0.815416 0.429609 0.588167
292 1 0.211015 0.606291 0.575762
766 2 0.0768824 0.633426 0.556006
767 2 0.267793 0.606367 0.528216
298 1 0.126729 0.773281 0.553494
762 2 0.30066 0.487927 0.561524
293 1 0.348194 0.66348 0.559458
788 2 0.469392 0.526322 0.565359
319 1 0.497415 0.67641 0.569447
322 1 0.270468 0.828049 0.560907
294 1 0.613218 0.628474 0.548571
794 2 0.680554 0.679569 0.585905
770 2 0.912305 0.599338 0.536536
297 1 0.956696 0.729244 0.559068
789 2 0.692772 0.471934 0.560739
796 2 0.0191362 0.882191 0.561099
797 2 0.0624015 0.772706 0.594082
798 2 0.141425 0.909474 0.579808
773 2 0.407405 0.909578 0.552152
278 1 0.262298 0.0342599 0.572344
323 1 0.412017 0.77052 0.593803
768 2 0.542689 0.823325 0.556155
299 1 0.707237 0.852535 0.557968
779 2 0.564097 0.979901 0.564864
324 1 0.60679 0.84962 0.596634
325 1 0.757824 0.847691 0.600169
295 1 0.777339 0.706252 0.557296
300 1 0.825891 0.823464 0.535766
800 2 0.845869 0.928806 0.565506
331 1 0.0679883 0.235563 0.627962
302 1 0.204842 0.980916 0.612933
802 2 0.215181 0.213384 0.635528
301 1 0.970782 0.111318 0.600531
327 1 0.132024 0.0843243 0.635736
777 2 0.347497 0.0879163 0.606032
304 1 0.55312 0.106494 0.638977
804 2 0.680481 0.0853015 0.616652
849 2 0.703198 0.0345813 0.671226
809 2 0.6181 0.227637 0.624539
306 1 0.822137 0.155392 0.626782
280 1 0.809454 0.987895 0.633647
326 1 0.948695 0.0554557 0.63629
335 1 0.720125 0.203236 0.652719
801 2 0.1147 0.238077 0.666789
287 1 0.118058 0.489021 0.589731
781 2 0.194735 0.146322 0.599954
786 2 0.163298 0.43093 0.668518
312 1 0.211952 0.367236 0.639035
286 1 0.0233512 0.346206 0.601928
307 1 0.286679 0.281023 0.606151
808 2 0.430453 0.215724 0.619877
313 1 0.47212 0.381499 0.601218
787 2 0.306759 0.439364 0.611675
837 2 0.439682 0.428137 0.646331
784 2 0.741235 0.234829 0.593435
315 1 0.73165 0.472734 0.619877
339 1 0.576544 0.404913 0.629251
810 2 0.869007 0.340133 0.619192
311 1 0.962581 0.480563 0.602043
806 2 0.024721 0.36068 0.648917
340 1 0.701844 0.373897 0.648254
840 2 0.929558 0.465345 0.647765
791 2 0.993512 0.619402 0.587162
317 1 0.225238 0.570586 0.621214
316 1 0.081288 0.509175 0.634871
342 1 0.11409 0.706823 0.629741
792 2 0.365043 0.574024 0.594253
318 1 0.306816 0.522002 0.652176
818 2 0.388579 0.676907 0.636836
817 2 0.253724 0.728845 0.612704
842 2 0.270338 0.728113 0.65472
338 1 0.475041 0.522705 0.620686
814 2 0.610781 0.57555 0.621596
813 2 0.608431 0.516075 0.589904
819 2 0.516857 0.696797 0.609895
320 1 0.773781 0.642245 0.613452
345 1 0.708481 0.683968 0.653636
795 2 0.919845 0.830756 0.591893
790 2 0.81867 0.566339 0.570348
815 2 0.831867 0.597158 0.648063
816 2 0.970712 0.649216 0.624841
821 2 0.0501355 0.978122 0.607815
347 1 0.187491 0.844926 0.641413
346 1 0.00931359 0.818822 0.629762
822 2 0.268605 0.867317 0.596901
823 2 0.428309 0.940008 0.602822
328 1 0.24141 -0.00122971 0.647789
348 1 0.339489 0.853962 0.633112
329 1 0.439113 0.952144 0.652051
824 2 0.604744 0.972906 0.625894
349 1 0.670436 0.757743 0.620999
843 2 0.532396 0.841935 0.63775
820 2 0.832688 0.778552 0.631889
321 1 0.876178 0.98195 0.599271
332 1 0.208756 0.0979865 0.682949
357 1 0.0585964 0.0859147 0.666821
851 2 0.133315 0.205952 0.702653
852 2 0.106891 0.0471727 0.709494
351 1 0.968135 0.143778 0.706724
803 2 0.357519 0.122631 0.649644
827 2 0.350396 0.990869 0.684636
334 1 0.552171 0.118828 0.678832
358 1 0.387935 0.195183 0.709435
829 2 0.573137 0.222013 0.709815
330 1 0.680436 0.160796 0.691501
355 1 0.556566 0.0629273 0.711519
826 2 0.938162 0.228929 0.653737
305 1 0.853853 0.0614686 0.667893
850 2 0.820759 0.0180405 0.712686
356 1 0.839168 0.195996 0.683671
805 2 0.987622 0.282066 0.693703
337 1 0.937289 0.455198 0.687247
831 2 0.15123 0.371221 0.707369
807 2 0.31528 0.409084 0.676172
333 1 0.356 0.273663 0.653171
832 2 0.267648 0.286599 0.697591
363 1 0.287241 0.404427 0.72211
364 1 0.453677 0.291051 0.685956
833 2 0.590141 0.270594 0.657133
834 2 0.535831 0.513047 0.684796
835 2 0.649064 0.347809 0.690255
359 1 0.555615 0.407006 0.717477
336 1 0.834707 0.336485 0.669192
361 1 0.811701 0.303389 0.714551
365 1 0.78877 0.46989 0.694358
811 2 0.967579 0.61145 0.668349
812 2 0.15857 0.59531 0.661691
836 2 0.079103 0.777822 0.662665
362 1 0.0851539 0.538065 0.697606
838 2 0.383616 0.579672 0.681901
862 2 0.243338 0.68818 0.69287
368 1 0.232808 0.522793 0.701115
839 2 0.69072 0.530869 0.664054
344 1 0.532744 0.642891 0.657367
864 2 0.631556 0.542506 0.715314
369 1 0.518257 0.672268 0.69775
370 1 0.681998 0.660882 0.695722
341 1 0.861747 0.734606 0.672127
861 2 0.0452774 0.694907 0.698564
366 1 0.828319 0.62272 0.693143
846 2 0.029018 0.947596 0.655647
847 2 0.283532 0.84257 0.679984
372 1 0.165363 0.931052 0.676309
828 2 0.450716 0.881889 0.697474
343 1 0.425676 0.768793 0.666633
848 2 0.3834 0.740957 0.704274
872 2 0.203266 0.932961 0.717049
844 2 0.602239 0.783828 0.670581
350 1 0.723356 0.869883 0.641084
374 1 0.593986 0.933344 0.666532
375 1 0.687258 0.943685 0.707395
841 2 0.00170778 0.834424 0.689833
825 2 0.868545 0.906952 0.666065
845 2 0.736249 0.82523 0.682362
352 1 0.965291 0.977491 0.691942
875 2 0.885985 0.877409 0.718456
377 1 0.177331 0.0232931 0.752488
881 2 0.155977 0.168518 0.746125
900 2 0.970321 0.09144 0.744721
353 1 0.258449 0.0818802 0.719781
858 2 0.282026 0.246728 0.73732
383 1 0.279902 0.107424 0.767882
354 1 0.494313 0.126772 0.74336
855 2 0.660872 0.148223 0.741867
830 2 0.834195 0.154289 0.731207
879 2 0.752252 0.132592 0.782008
856 2 0.160508 0.345326 0.742016
386 1 0.0518785 0.460519 0.732154
885 2 0.0440018 0.525156 0.775868
411 1 0.123206 0.366686 0.782908
857 2 0.283602 0.383963 0.765702
863 2 0.42994 0.445677 0.737219
882 2 0.396637 0.240823 0.765549
854 2 0.609812 0.303171 0.759324
859 2 0.75698 0.422599 0.740566
389 1 0.444686 0.298934 0.733158
889 2 0.593273 0.456774 0.753182
381 1 0.037691 0.252361 0.740505
360 1 0.674219 0.302243 0.723941
385 1 0.754881 0.269561 0.756003
384 1 0.894626 0.374121 0.741445
367 1 0.156259 0.806089 0.700205
886 2 0.0988954 0.613614 0.743581
866 2 0.126887 0.712654 0.769291
392 1 0.24443 0.662834 0.795952
867 2 0.207987 0.696033 0.7332
387 1 0.205531 0.501713 0.741322
393 1 0.336915 0.578684 0.729941
893 2 0.34561 0.682795 0.763932
394 1 0.660484 0.57327 0.764788
868 2 0.607755 0.701074 0.732591
892 2 0.49055 0.584005 0.747953
399 1 0.667687 0.693902 0.79386
860 2 0.946198 0.57759 0.716098
865 2 0.95487 0.657114 0.747476
391 1 0.734181 0.697886 0.760132
870 2 0.837687 0.72149 0.719349
390 1 0.768272 0.602678 0.733656
890 2 0.868942 0.547571 0.757598
871 2 0.00289627 0.940785 0.735951
398 1 0.132735 0.865066 0.747044
397 1 0.258402 0.798617 0.768027
382 1 0.301009 0.950561 0.769183
373 1 0.358126 0.87712 0.733469
898 2 0.469741 0.763229 0.74266
873 2 0.405921 0.0231648 0.721201
869 2 0.750474 0.845297 0.732846
874 2 0.584717 0.826737 0.71326
379 1 0.507468 0.913154 0.740229
400 1 0.62391 0.856433 0.768679
371 1 0.0290847 0.779893 0.730838
376 1 0.858857 0.973113 0.754038
380 1 0.63379 0.00809031 0.754021
396 1 0.871865 0.794296 0.753647
876 2 0.02398 0.0190823 0.778528
880 2 0.0681549 0.157942 0.784836
402 1 0.19937 0.0520963 0.797061
906 2 0.069037 0.176099 0.839459
922 2 0.0311599 0.0307028 0.815742
877 2 0.35313 0.154341 0.805495
378 1 0.428273 0.0634369 0.774937
853 2 0.575858 0.111362 0.777458
878 2 0.472863 0.0645337 0.813949
909 2 0.679226 0.236051 0.796052
904 2 0.752375 0.0757586 0.818548
934 2 0.568174 0.314624 0.831011
405 1 0.876653 0.027266 0.790046
435 1 0.913216 0.159248 0.774435
924 2 0.727768 0.221969 0.833134
406 1 0.222609 0.516516 0.782288
416 1 0.100113 0.476366 0.811801
407 1 0.210238 0.230434 0.780923
912 2 0.109376 0.2922 0.817866
417 1 0.970036 0.204429 0.810434
412 1 0.38787 0.544899 0.787738
388 1 0.488025 0.359027 0.773642
413 1 0.331687 0.332288 0.796891
883 2 0.501093 0.244324 0.798727
888 2 0.630986 0.43303 0.803878
414 1 0.759796 0.413613 0.781375
884 2 0.968805 0.342868 0.781779
410 1 0.828523 0.255724 0.798591
915 2 0.944029 0.396469 0.817849
891 2 0.0947585 0.625654 0.803962
418 1 0.258752 0.509615 0.817936
887 2 0.542999 0.565196 0.795649
424 1 0.258727 0.817577 0.8114
443 1 0.372683 0.646382 0.816425
395 1 0.754915 0.553854 0.798916
415 1 0.648716 0.637657 0.829753
919 2 0.521085 0.706674 0.777722
430 1 0.510147 0.73206 0.81757
910 2 0.92317 0.519243 0.800555
895 2 0.954918 0.666361 0.784169
420 1 0.833119 0.738845 0.806714
897 2 0.13635 0.908236 0.782539
896 2 0.967079 0.869343 0.774851
422 1 0.079791 0.785229 0.802097
428 1 0.123023 0.915368 0.826093
421 1 0.948459 0.886332 0.81496
423 1 0.400753 0.842837 0.781405
403 1 0.311822 0.951572 0.814149
448 1 0.33968 0.8288 0.874714
404 1 0.535721 0.964833 0.796158
899 2 0.661437 0.879941 0.817175
449 1 0.409161 0.847718 0.819685
450 1 0.805531 0.933314 0.826477
425 1 0.699575 0.972465 0.788991
911 2 0.95071 0.681966 0.827411
401 1 0.911323 0.0826933 0.832208
920 2 0.801101 0.856618 0.786104
901 2 0.189557 0.244528 0.87257
905 2 0.938293 0.0317502 0.871492
447 1 0.19565 0.0657409 0.869142
931 2 0.93539 0.235666 0.879194
431 1 0.262666 0.0535266 0.835133
902 2 0.371949 -0.00437504 0.865027
409 1 0.413358 0.243185 0.833939
427 1 0.328379 0.157052 0.862166
933 2 0.499403 0.289792 0.868407
453 1 0.364601 0.0393455 0.899959
903 2 0.532354 0.0343466 0.883395
949 2 0.676684 0.0199819 0.846582
929 2 0.690704 0.0510683 0.900437
434 1 0.470677 0.134713 0.856116
930 2 0.877683 0.267837 0.839702
429 1 0.807833 0.125055 0.862181
408 1 0.191315 0.409452 0.860568
940 2 0.154288 0.568773 0.843405
908 2 0.238086 0.234733 0.834812
439 1 0.448596 0.431555 0.816868
937 2 0.311644 0.387334 0.835758
433 1 0.355625 0.336504 0.877982
440 1 0.795106 0.397246 0.821727
939 2 0.650192 0.418356 0.845737
964 2 0.645048 0.175227 0.869368
436 1 0.0148124 0.362996 0.853516
944 2 0.873795 0.423416 0.853912
935 2 0.747352 0.295975 0.865846
472 1 0.00998471 0.669905 0.868339
917 2 0.248624 0.764468 0.844886
470 1 0.0524775 0.519244 0.881907
497 1 0.169027 0.773076 0.876539
913 2 0.405423 0.457586 0.862753
918 2 0.432002 0.736163 0.893955
419 1 0.402542 0.708818 0.851283
942 2 0.295976 0.593507 0.863294
894 2 0.484537 0.566503 0.840766
925 2 0.744431 0.779224 0.836067
914 2 0.666107 0.56021 0.860397
444 1 0.553836 0.707187 0.856366
943 2 0.683482 0.737725 0.868208
441 1 0.995042 0.5344 0.841241
445 1 0.800002 0.59765 0.836523
945 2 0.85465 0.549247 0.871934
946 2 0.835368 0.708434 0.860937
473 1 0.0920912 0.747844 0.83897
921 2 0.0430646 0.861829 0.870882
426 1 0.0717638 0.0178105 0.853196
499 1 0.226984 0.903597 0.855231
947 2 0.41363 0.870962 0.906897
923 2 0.535357 0.971043 0.837221
948 2 0.494575 0.865961 0.86282
446 1 0.668065 0.881921 0.858358
974 2 0.774277 0.963819 0.870824
941 2 0.899311 0.873489 0.855788
475 1 0.809395 0.79318 0.890962
926 2 0.076985 0.051962 0.889825
907 2 0.229117 0.139762 0.901686
437 1 0.123752 0.236746 0.9111
457 1 0.149087 0.0645904 0.938926
928 2 0.448163 0.19356 0.895502
478 1 0.428229 0.129075 0.937235
459 1 0.572498 0.163093 0.91892
451 1 0.999971 0.117837 0.917274
460 1 0.834936 0.140614 0.898938
455 1 0.740205 0.189632 0.927576
936 2 0.0715978 0.462513 0.919369