ITEM: TIMESTEP
3040
ITEM: NUMBER OF ATOMS
1000
ITEM: BOX BOUNDS pp pp pp
0.0000000000000000e+00 6.2996052494743662e+00
0.0000000000000000e+00 6.2996052494743662e+00
0.0000000000000000e+00 2.5198420997897465e+01
ITEM: ATOMS id type xs ys zs
502 2 0.069474 0.0605218 0.0321639
11 1 0.09691 0.215882 0.0374567
951 2 0.146041 0.13148 0.00218084
12 1 0.275025 0.0961635 0.0356578
58 1 0.499601 0.221349 0.0415142
522 2 0.51608 0.0645527 0.0307257
983 2 0.645837 0.157292 0.0274954
503 2 0.733195 0.0322961 0.0557777
504 2 0.669064 0.0135715 0.0056146
31 1 0.901396 0.126362 0.0110084
485 1 0.824482 0.185302 0.0432273
510 2 0.108928 0.390442 0.0485442
992 2 0.236651 0.423091 0.0189143
487 1 0.029753 0.332051 0.0116925
13 1 0.22707 0.27447 0.00585682
518 2 0.379147 0.416353 0.0479853
512 2 0.310632 0.264433 0.040794
489 1 0.403259 0.252521 0.00957671
484 1 0.687929 0.358662 0.00649412
33 1 0.546056 0.386066 0.0304598
514 2 0.620099 0.507178 0.0119155
977 2 0.953458 0.322814 0.045729
985 2 0.758024 0.37177 0.0381929
981 2 0.916418 0.442106 0.0250313
490 1 0.87727 0.290627 0.00590186
511 2 0.0476974 0.522858 0.0154002
540 2 0.147054 0.718136 0.0550939
545 2 0.194551 0.543273 0.0494522
70 1 0.0846038 0.669474 0.0218483
516 2 0.199372 0.604325 0.00792814
963 2 0.354149 0.503981 0.000828179
18 1 0.344931 0.620302 0.0307396
519 2 0.526167 0.62046 0.0421942
524 2 0.671002 0.652655 0.035305
4 1 0.582921 0.747396 0.00537998
15 1 0.764843 0.517657 0.0279149
45 1 0.835251 0.658518 0.034499
10 1 0.878329 0.541636 0.0560473
100 1 0.96651 0.70615 0.0549789
544 2 0.147754 0.809064 0.0198036
525 2 0.190123 0.958566 0.0431993
75 1 0.0410931 0.89475 0.0443893
47 1 0.279008 0.76476 0.0280465
3 1 0.420822 0.754221 0.0437512
27 1 0.355791 0.921283 0.0407651
997 2 0.433929 0.81767 0.00694363
9 1 0.570162 0.885011 0.0150551
976 2 0.828866 0.939013 0.00420431
29 1 0.754391 0.879092 0.0350712
5 1 0.949779 0.981273 0.0206216
30 1 0.902294 0.831484 0.0248372
37 1 0.127093 0.124823 0.0708599
51 1 0.140336 0.15279 0.109345
530 2 0.996907 0.104943 0.104395
526 2 0.407835 0.0426549 0.0631437
36 1 0.265914 0.0293016 0.0809543
52 1 0.458659 0.0864152 0.0996656
506 2 0.353636 0.179135 0.076291
14 1 0.699541 0.214676 0.0656951
528 2 0.551621 0.222077 0.0992922
508 2 0.592722 0.0610322 0.0706973
59 1 0.72423 0.11122 0.109195
521 2 0.977224 0.0723065 0.0619042
529 2 0.839499 0.201703 0.090655
35 1 0.96976 0.233419 0.0799142
7 1 0.164924 0.270624 0.0683952
56 1 0.238809 0.306274 0.111702
61 1 0.072168 0.405546 0.111799
517 2 0.266277 0.432061 0.0804689
538 2 0.450836 0.322283 0.0716001
49 1 0.552189 0.453958 0.0660037
513 2 0.706583 0.411182 0.0822195
533 2 0.745581 0.28612 0.109774
559 2 0.511689 0.377264 0.103262
509 2 0.845676 0.343341 0.0711397
89 1 0.913455 0.416738 0.0982608
40 1 0.0199523 0.515926 0.0654439
38 1 0.127052 0.531563 0.0921993
564 2 0.0290751 0.682961 0.0893851
23 1 0.410071 0.694779 0.0803686
42 1 0.264432 0.652719 0.0747348
537 2 0.320123 0.54617 0.112207
43 1 0.391188 0.549747 0.0711934
547 2 0.280663 0.726037 0.111282
50 1 0.716182 0.533584 0.0633606
998 2 0.553493 0.590433 0.0833175
539 2 0.698894 0.584133 0.100362
543 2 0.664763 0.732325 0.101205
39 1 0.867754 0.62548 0.0886538
549 2 0.799637 0.740596 0.0739319
542 2 0.217276 0.859477 0.10136
55 1 0.116883 0.976909 0.0787887
550 2 0.29504 0.806095 0.067658
546 2 0.382696 0.926535 0.0854824
28 1 0.524083 0.917757 0.0608342
523 2 0.643883 0.775699 0.0603843
548 2 0.674107 0.894193 0.0887618
572 2 0.540739 0.901269 0.103836
505 2 0.870319 0.894931 0.0637081
534 2 0.876818 0.979254 0.093531
69 1 0.900647 0.796931 0.0949568
551 2 0.217463 0.0385064 0.162816
555 2 0.0296329 0.144128 0.152618
532 2 0.312211 0.118064 0.121768
552 2 0.420801 0.161649 0.144898
53 1 0.372078 0.0292166 0.157476
77 1 0.288513 0.193619 0.165438
527 2 0.582836 0.0443534 0.119201
54 1 0.572492 0.123377 0.154569
34 1 0.887347 0.22987 0.123315
80 1 0.89628 0.0714484 0.128387
99 1 0.757362 0.177447 0.157113
65 1 0.0643143 0.276102 0.133942
86 1 0.0100064 0.428415 0.158056
531 2 0.221613 0.433864 0.130149
556 2 0.168675 0.340242 0.157677
63 1 0.375311 0.348095 0.113925
62 1 0.347137 0.336615 0.157523
557 2 0.501628 0.415108 0.167342
558 2 0.504665 0.297332 0.136558
562 2 0.466897 0.483192 0.136436
553 2 0.659429 0.260438 0.139023
88 1 0.632126 0.425898 0.124922
84 1 0.717093 0.353367 0.170562
60 1 0.859987 0.300163 0.160973
535 2 0.839007 0.411917 0.133947
41 1 0.18569 0.595411 0.143368
570 2 0.084961 0.725968 0.122943
66 1 0.0280188 0.590006 0.155504
541 2 0.170299 0.661277 0.177729
91 1 0.339057 0.491602 0.158395
536 2 0.378898 0.679652 0.145983
116 1 0.46412 0.579095 0.174875
68 1 0.537055 0.618546 0.119872
44 1 0.695747 0.729128 0.152962
563 2 0.661711 0.566129 0.152013
93 1 0.521017 0.733406 0.153235
560 2 0.969601 0.532928 0.118652
565 2 0.865495 0.682644 0.129418
90 1 0.888786 0.494606 0.166455
64 1 0.820315 0.543342 0.118485
26 1 0.108367 0.963542 0.119792
71 1 0.115884 0.798334 0.165505
571 2 0.280271 0.957568 0.130052
48 1 0.432807 0.773041 0.116578
567 2 0.385036 0.851957 0.148106
72 1 0.255512 0.749662 0.153385
97 1 0.245037 0.900083 0.166008
73 1 0.603813 0.862699 0.136177
98 1 0.51822 0.971126 0.150868
569 2 0.62988 0.855533 0.173143
78 1 0.670178 0.0113016 0.156519
573 2 0.763172 0.991244 0.129873
574 2 0.895895 0.893552 0.132466
76 1 0.999387 0.98255 0.153317
74 1 0.745419 0.80996 0.122596
575 2 0.966723 0.769263 0.145293
125 1 0.792807 0.855225 0.172595
600 2 0.839266 0.990185 0.164231
576 2 0.14639 0.173176 0.181933
106 1 0.123058 0.215339 0.21813
82 1 0.23677 0.0426062 0.200311
605 2 0.0330342 0.109212 0.199018
601 2 0.0942938 0.0271848 0.225672
83 1 0.364507 0.144543 0.191548
581 2 0.266498 0.268794 0.215736
602 2 0.390489 0.0218331 0.214288
577 2 0.51429 0.0425535 0.190601
554 2 0.637518 0.217219 0.183842
578 2 0.568044 0.138099 0.218439
104 1 0.724572 0.140077 0.220231
604 2 0.906767 0.218727 0.20641
598 2 0.881205 0.125641 0.175163
599 2 0.865833 0.0137046 0.222203
610 2 0.0898422 0.373425 0.203435
611 2 0.212443 0.400033 0.226873
561 2 0.305952 0.452968 0.194814
57 1 0.400762 0.286794 0.189711
92 1 0.616597 0.467117 0.189316
109 1 0.653767 0.267925 0.225627
112 1 0.530057 0.361501 0.205241
579 2 0.760504 0.265393 0.195804
94 1 0.780228 0.424603 0.202577
85 1 0.939836 0.422669 0.197254
584 2 0.883023 0.49043 0.231907
585 2 0.956143 0.322423 0.227759
81 1 0.999566 0.287312 0.183688
590 2 0.128712 0.502159 0.176221
595 2 0.139227 0.719617 0.21639
96 1 0.991108 0.71094 0.182737
121 1 0.986113 0.693216 0.224832
615 2 0.0563047 0.58626 0.203555
607 2 0.355374 0.5337 0.226176
591 2 0.296449 0.609493 0.198206
592 2 0.420136 0.664998 0.21538
122 1 0.284795 0.73866 0.227742
586 2 0.524509 0.519287 0.224671
589 2 0.720196 0.567443 0.208247
113 1 0.564469 0.684868 0.219294
587 2 0.596322 0.648212 0.185497
614 2 0.704982 0.708095 0.224258
588 2 0.911609 0.60349 0.203903
95 1 0.789531 0.637103 0.176443
120 1 0.842845 0.750222 0.198555
566 2 0.228813 0.802166 0.192731
596 2 0.0760409 0.866271 0.219611
101 1 0.115759 0.992307 0.18685
102 1 0.228622 0.876305 0.22689
67 1 0.37086 0.767908 0.183506
597 2 0.420418 0.928175 0.183151
622 2 0.391801 0.864742 0.217191
568 2 0.52582 0.798971 0.199078
593 2 0.656132 0.88581 0.211183
79 1 0.724514 0.000268434 0.19096
103 1 0.529187 0.967346 0.224198
580 2 0.967872 0.94072 0.192858
105 1 0.90875 0.855637 0.233175
582 2 0.226649 0.109944 0.238848
606 2 0.0623667 0.153099 0.250032
137 1 0.172251 0.249654 0.258796
152 1 0.149465 0.0518826 0.266578
107 1 0.302805 0.0123199 0.266746
108 1 0.364353 0.175787 0.233166
603 2 0.477788 0.0732057 0.24554
132 1 0.261459 0.227867 0.290473
128 1 0.395648 0.147052 0.273194
647 2 0.448111 0.00264549 0.289031
124 1 0.731326 0.992063 0.246289
134 1 0.627599 0.144559 0.256777
130 1 0.740247 0.0246919 0.290947
129 1 0.571573 0.108048 0.289901
110 1 0.919118 0.13724 0.242626
150 1 0.90188 0.0609851 0.27363
135 1 0.782733 0.162851 0.269497
136 1 0.124871 0.389693 0.272174
140 1 0.0719082 0.432084 0.238452
87 1 0.414752 0.389037 0.231461
608 2 0.495592 0.387773 0.268256
612 2 0.31374 0.473963 0.269514
632 2 0.326982 0.315743 0.263027
583 2 0.499819 0.252632 0.243635
139 1 0.606742 0.374766 0.24561
119 1 0.696127 0.467585 0.280999
634 2 0.626228 0.294202 0.274292
609 2 0.823907 0.261108 0.236768
639 2 0.752572 0.431122 0.246242
145 1 0.926007 0.407863 0.260309
126 1 0.981966 0.279578 0.261581
635 2 0.774051 0.326322 0.275247
111 1 0.208674 0.544345 0.242077
616 2 0.163795 0.713294 0.255036
617 2 0.169582 0.538086 0.278808
641 2 0.0769128 0.692446 0.28541
642 2 0.228792 0.678584 0.293196
117 1 0.326102 0.640263 0.252645
613 2 0.453753 0.572951 0.260189
148 1 0.421897 0.721268 0.273649
114 1 0.624458 0.584821 0.249112
618 2 0.668656 0.718127 0.263334
141 1 0.997072 0.606833 0.257405
115 1 0.771111 0.601936 0.243812
166 1 0.847728 0.523275 0.272689
619 2 0.776016 0.680155 0.287061
146 1 0.857713 0.724503 0.251172
621 2 0.135345 0.890932 0.253156
625 2 0.0202306 0.799164 0.260738
650 2 0.996554 0.962856 0.252481
172 1 0.175939 0.831809 0.289547
127 1 0.429691 0.905365 0.257668
118 1 0.450521 0.770388 0.240557
147 1 0.294083 0.805297 0.260057
594 2 0.751913 0.84517 0.251849
123 1 0.5945 0.837191 0.244678
623 2 0.608621 0.977493 0.270132
624 2 0.569989 0.797822 0.286062
649 2 0.857988 0.918806 0.27136
626 2 0.0580256 0.0292797 0.294637
157 1 0.189413 0.115228 0.309514
651 2 0.154588 0.206992 0.346901
652 2 0.240079 0.0772991 0.345097
133 1 0.47157 0.221713 0.298145
153 1 0.362842 0.98659 0.350986
158 1 0.340841 0.177807 0.317405
628 2 0.522868 0.108114 0.326789
629 2 0.669975 0.0660155 0.333277
164 1 0.605988 0.234288 0.343694
160 1 0.700077 0.21474 0.308276
630 2 0.836909 0.142426 0.305101
131 1 0.988719 0.192821 0.320147
151 1 0.982706 0.0416556 0.331149
155 1 0.878895 0.975191 0.30842
655 2 0.782747 0.192427 0.350508
180 1 0.856259 0.0175126 0.345903
631 2 0.135552 0.470704 0.330624
637 2 0.0770064 0.254712 0.292148
156 1 0.0722018 0.33644 0.33972
657 2 0.221325 0.306561 0.323403
138 1 0.440823 0.483473 0.33021
162 1 0.261276 0.468234 0.311749
163 1 0.346562 0.349047 0.303633
658 2 0.449911 0.265819 0.337666
188 1 0.349998 0.372117 0.343315
633 2 0.519768 0.374394 0.30644
169 1 0.710428 0.356802 0.322286
638 2 0.623664 0.490446 0.316935
640 2 0.963545 0.375446 0.298998
165 1 0.853946 0.30255 0.313692
161 1 0.948819 0.443187 0.330384
660 2 0.911421 0.269476 0.350689
665 2 0.827037 0.440021 0.303609
185 1 0.841986 0.408493 0.354508
167 1 0.131128 0.630513 0.328943
636 2 0.0346386 0.517056 0.301962
661 2 0.0466255 0.558875 0.353056
667 2 0.259352 0.704747 0.340818
142 1 0.373393 0.55689 0.299938
168 1 0.389482 0.622045 0.343187
662 2 0.283129 0.520259 0.34996
672 2 0.354591 0.752853 0.314138
143 1 0.524048 0.562671 0.299462
144 1 0.638686 0.664603 0.305967
173 1 0.49509 0.682762 0.323809
170 1 0.645907 0.697613 0.348324
620 2 0.916968 0.638303 0.298503
171 1 0.982543 0.718823 0.328429
195 1 0.755883 0.747769 0.326701
645 2 0.753001 0.594544 0.325363
666 2 0.90776 0.577366 0.336934
671 2 0.151183 0.965432 0.322563
197 1 0.123394 0.793093 0.327458
627 2 0.302923 0.91941 0.301712
648 2 0.444126 0.860228 0.29986
177 1 0.253714 0.873623 0.340855
198 1 0.463112 0.846273 0.343723
149 1 0.602527 0.848012 0.329011
644 2 0.714815 0.828603 0.296798
154 1 0.576637 0.977232 0.311677
646 2 0.874301 0.795298 0.29338
196 1 0.98609 0.871928 0.330943
670 2 0.793807 0.885079 0.325153
175 1 0.989378 0.899814 0.291987
176 1 0.0715814 0.0669209 0.361306
677 2 0.15289 0.146037 0.390974
681 2 0.0180798 0.0827472 0.397219
653 2 0.429234 0.125561 0.36029
183 1 0.287553 0.18909 0.365634
208 1 0.38562 0.195833 0.404865
178 1 0.305374 0.065519 0.386714
159 1 0.570243 0.219066 0.381573
654 2 0.685659 0.102871 0.372093
679 2 0.764755 0.216233 0.393143
179 1 0.552373 0.0284238 0.391467
680 2 0.92177 0.129362 0.367753
699 2 0.836738 0.0300192 0.389494
206 1 0.873033 0.157906 0.410735
182 1 0.115404 0.288408 0.379986
187 1 0.208189 0.38134 0.361157
212 1 0.115258 0.435908 0.397758
682 2 0.311002 0.325553 0.38718
683 2 0.461977 0.352236 0.393309
687 2 0.266341 0.471582 0.387853
688 2 0.418483 0.483084 0.37305
663 2 0.577489 0.399237 0.361141
190 1 0.729349 0.337795 0.370291
664 2 0.696299 0.505232 0.354808
184 1 0.613973 0.344288 0.398142
656 2 0.991382 0.441004 0.369045
659 2 0.828237 0.42358 0.389919
181 1 0.969026 0.254414 0.386123
192 1 0.0987424 0.717882 0.360087
686 2 0.999336 0.549873 0.396196
691 2 0.056179 0.694647 0.39454
217 1 0.155679 0.571804 0.381236
717 2 0.210933 0.708924 0.404222
193 1 0.477593 0.703538 0.365398
692 2 0.315589 0.628059 0.376789
218 1 0.4415 0.601564 0.401089
643 2 0.528405 0.566327 0.356455
189 1 0.565657 0.504464 0.391896
693 2 0.522705 0.745128 0.405292
194 1 0.693086 0.753851 0.398487
186 1 0.874311 0.558981 0.377499
669 2 0.792748 0.68131 0.360969
191 1 0.955335 0.692116 0.366294
690 2 0.757826 0.558274 0.401106
200 1 0.85808 0.730551 0.395738
676 2 0.170042 0.966353 0.371914
696 2 0.0593 0.847146 0.371561
201 1 0.158982 0.0203254 0.412274
222 1 0.20999 0.798229 0.373465
697 2 0.258235 0.878823 0.405126
698 2 0.445569 0.946704 0.380569
223 1 0.352422 0.802708 0.380926
673 2 0.563794 0.99645 0.353753
174 1 0.703521 0.946647 0.368868
668 2 0.615477 0.830893 0.367476
204 1 0.588728 0.888672 0.401004
199 1 0.799709 0.872591 0.394185
674 2 0.879624 0.840976 0.359507
675 2 0.96252 0.968445 0.373284
221 1 0.961211 0.867778 0.409257
202 1 0.204077 0.0638122 0.453672
207 1 0.249134 0.177936 0.421856
232 1 0.231336 0.208221 0.460156
701 2 0.043149 0.0113327 0.453342
706 2 0.106641 0.149782 0.433337
203 1 0.299114 0.0282441 0.425904
703 2 0.451932 0.0717099 0.425266
708 2 0.358971 0.152969 0.447169
678 2 0.558584 0.190314 0.421314
209 1 0.734957 0.195613 0.433297
704 2 0.541335 0.151957 0.457552
229 1 0.610006 0.0212071 0.425849
230 1 0.689812 0.148834 0.469616
700 2 0.93135 0.000595108 0.423107
231 1 0.983036 0.149139 0.462966
205 1 0.75662 0.04014 0.418904
705 2 0.845222 0.0784589 0.44929
236 1 0.0961305 0.279718 0.458687
237 1 0.125452 0.291559 0.418318
711 2 0.0638598 0.413795 0.441204
712 2 0.23421 0.449903 0.427388
213 1 0.370438 0.419577 0.417135
233 1 0.359678 0.297956 0.470954
238 1 0.348798 0.456934 0.454858
707 2 0.279303 0.316039 0.433114
214 1 0.435909 0.283225 0.438968
684 2 0.51002 0.415549 0.429872
709 2 0.732156 0.360813 0.441785
215 1 0.679362 0.450976 0.413998
714 2 0.625623 0.450374 0.453789
234 1 0.601279 0.288476 0.450583
210 1 0.828967 0.313642 0.41832
211 1 0.954098 0.420552 0.416077
685 2 0.832047 0.48905 0.42838
235 1 0.85411 0.245198 0.453215
240 1 0.786281 0.497888 0.464149
710 2 0.985282 0.256469 0.430601
715 2 0.902292 0.420576 0.453841
695 2 0.124401 0.557882 0.424505
242 1 0.146823 0.524254 0.464655
741 2 0.238508 0.73866 0.454467
720 2 0.999671 0.71324 0.429584
246 1 0.0949802 0.682858 0.468629
718 2 0.358554 0.718503 0.41965
716 2 0.316101 0.577308 0.415661
713 2 0.462186 0.560602 0.440124
243 1 0.301493 0.611378 0.45322
689 2 0.586321 0.625914 0.424909
694 2 0.746504 0.671591 0.429757
219 1 0.659667 0.593474 0.458926
244 1 0.536158 0.694807 0.455746
216 1 0.909391 0.600227 0.420962
241 1 0.974349 0.538961 0.460337
220 1 0.868136 0.660423 0.45893
247 1 0.107976 0.843676 0.40795
721 2 0.17685 0.918631 0.439574
725 2 0.992628 0.85088 0.447231
746 2 0.115753 0.843389 0.469673
702 2 0.336309 0.988775 0.465042
248 1 0.414663 0.792802 0.460741
722 2 0.332592 0.871512 0.438579
723 2 0.446975 0.926245 0.418919
748 2 0.489669 0.946045 0.455447
224 1 0.611925 0.798154 0.435853
719 2 0.730712 0.780903 0.458661
724 2 0.736073 0.877314 0.425253
249 1 0.582268 0.855875 0.471505
749 2 0.712668 0.993924 0.458257
225 1 0.860129 0.766593 0.432975
250 1 0.854407 0.906345 0.452938
227 1 0.223263 0.00111391 0.495084
726 2 0.130465 0.140988 0.482925
252 1 0.218835 0.130525 0.520501
251 1 0.0654383 0.986974 0.497236
276 1 0.0692443 0.115767 0.518307
228 1 0.445344 0.0764487 0.476056
727 2 0.324171 0.143076 0.492958
752 2 0.367592 0.0776182 0.524138
728 2 0.455795 0.206356 0.494803
254 1 0.591551 0.00789841 0.490588
729 2 0.585473 0.14041 0.508688
255 1 0.733423 0.0316071 0.505026
730 2 0.864443 0.165657 0.484988
755 2 0.927035 0.109987 0.518014
754 2 0.766778 0.173516 0.515378
257 1 0.238416 0.283059 0.503197
731 2 0.0748197 0.248135 0.503541
736 2 0.0541802 0.413156 0.482202
732 2 0.212584 0.37602 0.472558
261 1 0.147613 0.376309 0.519345
239 1 0.49911 0.405414 0.471988
733 2 0.374592 0.365685 0.502573
259 1 0.587097 0.285137 0.499495
734 2 0.734786 0.314827 0.478863
739 2 0.64365 0.430701 0.493372
264 1 0.735424 0.354928 0.514104
763 2 0.513347 0.41463 0.512695
764 2 0.662205 0.466635 0.531273
735 2 0.945375 0.302479 0.480225
260 1 0.886996 0.272352 0.518456
265 1 0.891853 0.419722 0.495982
267 1 0.0935766 0.654206 0.503173
266 1 0.0368167 0.516228 0.513623
262 1 0.206336 0.508137 0.506394
737 2 0.342268 0.518104 0.493099
742 2 0.408215 0.673184 0.48439
738 2 0.485738 0.536624 0.483618
272 1 0.26376 0.657783 0.495584
268 1 0.513211 0.635612 0.518762
743 2 0.571602 0.737692 0.493386
269 1 0.627304 0.581704 0.500278
744 2 0.72806 0.675381 0.487985
769 2 0.662496 0.704664 0.520718
245 1 0.768267 0.533566 0.503327
270 1 0.80603 0.657397 0.522487
740 2 0.916688 0.588049 0.495433
745 2 0.960437 0.73794 0.480078
271 1 0.0293053 0.830266 0.515873
771 2 0.15812 0.978585 0.527862
253 1 0.420746 0.944162 0.496774
273 1 0.411267 0.766417 0.517654
747 2 0.251875 0.853427 0.495701
772 2 0.322283 0.935115 0.530538
793 2 0.247219 0.764515 0.523899
274 1 0.557893 0.868825 0.517214
774 2 0.707579 0.847443 0.501234
226 1 0.869653 0.0128884 0.488356
275 1 0.838407 0.807022 0.487175
750 2 0.967221 0.887067 0.482682
296 1 0.892801 0.770906 0.525719
775 2 0.898919 0.954448 0.525142
277 1 0.115939 0.0106505 0.563688
256 1 0.00738442 0.216714 0.540275
776 2 0.114215 0.172846 0.577384
258 1 0.345365 0.224646 0.531946
282 1 0.286162 0.138569 0.567205
283 1 0.411481 0.223524 0.574183
753 2 0.502154 0.991051 0.533537
303 1 0.419672 0.066193 0.570132
778 2 0.51583 0.147414 0.543335
279 1 0.660251 0.996659 0.539464
308 1 0.572539 0.103146 0.579811
309 1 0.685817 0.174331 0.566121
285 1 0.752409 0.0306893 0.580447
780 2 0.961578 0.0829336 0.558122
799 2 0.815428 0.0661235 0.542888
310 1 0.838686 0.165081 0.579245
751 2 0.183371 0.258312 0.54568
761 2 0.150055 0.436731 0.554562
756 2 0.0858104 0.317439 0.567796
263 1 0.419835 0.519929 0.530657
758 2 0.479396 0.285252 0.531781
288 1 0.412402 0.37359 0.560332
757 2 0.281149 0.397569 0.535869
782 2 0.286161 0.341835 0.571274
284 1 0.628811 0.26341 0.535665
289 1 0.547442 0.409534 0.552654
290 1 0.700355 0.385013 0.558645
783 2 0.556494 0.260753 0.577765
314 1 0.602394 0.399796 0.588241
281 1 0.950655 0.259488 0.57483
760 2 0.991316 0.378916 0.527424
759 2 0.798007 0.253076 0.548957
765 2 0.835019 0.457196 0.534958
291 1 0.00201247 0.4997 0.569742
785 2 0.856302 0.373027 0.570252
292 1 0.173457 0.605539 0.580031
766 2 0.0763585 0.601032 0.550208
767 2 0.214679 0.612066 0.535947
298 1 0.12653 0.732221 0.550327
762 2 0.277064 0.519897 0.556827
293 1 0.373127 0.6563 0.544985
788 2 0.434631 0.520113 0.571705
319 1 0.488145 0.685022 0.581885
322 1 0.270046 0.729671 0.564059
294 1 0.573874 0.581058 0.554144
794 2 0.676844 0.689672 0.567961
770 2 0.933505 0.609277 0.542025
297 1 0.97716 0.743911 0.553793
789 2 0.78055 0.581358 0.556616
796 2 0.0325094 0.89052 0.556604
797 2 0.11293 0.754363 0.587064
798 2 0.174963 0.858597 0.563128
773 2 0.424944 0.889971 0.555254
278 1 0.273473 0.970688 0.565374
323 1 0.389553 0.795097 0.587041
768 2 0.505571 0.762359 0.549124
299 1 0.637447 0.828489 0.551479
779 2 0.547953 0.952193 0.567097
324 1 0.550425 0.817875 0.585041
325 1 0.754342 0.826474 0.587477
295 1 0.822031 0.748497 0.558352
300 1 0.777137 0.879124 0.535176
800 2 0.860097 0.947453 0.562369
331 1 0.0575835 0.183514 0.625519
302 1 0.206046 0.0628237 0.595673
802 2 0.256356 0.185941 0.630623
301 1 0.0269782 0.0528374 0.596302
327 1 0.158929 0.0511641 0.636273
777 2 0.36804 0.128187 0.603231
304 1 0.537146 0.100084 0.617953
804 2 0.682996 0.158126 0.606298
849 2 0.662212 0.0682116 0.645285
809 2 0.635763 0.249276 0.635401
306 1 0.882905 0.11143 0.61071
280 1 0.765623 0.9999 0.624053
326 1 0.984044 0.0312619 0.637879
335 1 0.782466 0.203415 0.636604
801 2 0.140897 0.289201 0.640351
287 1 0.110818 0.451608 0.59904
781 2 0.229684 0.245002 0.593731
786 2 0.125009 0.438922 0.647907
312 1 0.225604 0.392659 0.621452
286 1 0.0242656 0.305008 0.604666
307 1 0.344279 0.293433 0.611949
808 2 0.491822 0.257813 0.61185
313 1 0.466772 0.388532 0.604174
787 2 0.344368 0.456798 0.597332
837 2 0.38672 0.424905 0.643706
784 2 0.737397 0.316835 0.590164
315 1 0.754574 0.472311 0.593271
339 1 0.59485 0.416676 0.627127
810 2 0.887968 0.273525 0.609116
311 1 0.914528 0.440206 0.600625
806 2 0.962997 0.355855 0.636393
340 1 0.771991 0.402614 0.64051
840 2 0.897248 0.496364 0.650901
791 2 0.043609 0.610717 0.595485
317 1 0.208727 0.567323 0.6148
316 1 0.0495866 0.546301 0.628408
342 1 0.113501 0.686857 0.628838
792 2 0.319228 0.62791 0.58718
318 1 0.342262 0.580775 0.641596
818 2 0.415983 0.697759 0.616686
817 2 0.250256 0.731473 0.608486
842 2 0.270103 0.727246 0.649319
338 1 0.467962 0.53144 0.62181
814 2 0.659519 0.573435 0.625871
813 2 0.564939 0.545927 0.593014
819 2 0.578963 0.694079 0.608439
320 1 0.74723 0.678877 0.602146
345 1 0.741947 0.696966 0.642586
795 2 0.920524 0.761472 0.591201
790 2 0.891424 0.590472 0.593992
815 2 0.797713 0.558383 0.623547
816 2 0.883754 0.686485 0.623525
821 2 0.0808747 0.90805 0.598353
347 1 0.164815 0.829512 0.628974
346 1 0.993728 0.807462 0.63028
822 2 0.250405 0.86822 0.593598
823 2 0.45068 0.921924 0.602724
328 1 0.274812 0.968412 0.618614
348 1 0.344643 0.829203 0.625282
329 1 0.419847 0.976875 0.645542
824 2 0.632028 0.984719 0.604891
349 1 0.644809 0.842708 0.620984
843 2 0.507782 0.856768 0.638921
820 2 0.825435 0.83614 0.622534
321 1 0.908748 0.946469 0.604761
332 1 0.192886 0.192579 0.667567
357 1 0.0592171 0.11288 0.669368
851 2 0.146415 0.239737 0.703377
852 2 0.127524 0.0405256 0.699158
351 1 0.0155808 0.161263 0.70289
803 2 0.351557 0.107726 0.645815
827 2 0.282089 0.0313825 0.674133
334 1 0.487629 0.16703 0.646652
358 1 0.435127 0.141368 0.689885
829 2 0.588969 0.181462 0.686979
330 1 0.737618 0.141107 0.69585
355 1 0.577826 0.0416429 0.70295
826 2 0.933116 0.170717 0.653485
305 1 0.791514 0.066001 0.664405
850 2 0.860484 0.0692992 0.700793
356 1 0.897884 0.225202 0.688912
805 2 0.0457704 0.280322 0.668679
337 1 0.999435 0.421462 0.680237
831 2 0.148649 0.385783 0.684576
807 2 0.264484 0.362871 0.662445
333 1 0.371787 0.280508 0.647847
832 2 0.311138 0.249444 0.688297
363 1 0.336173 0.404651 0.695643
364 1 0.484944 0.323746 0.687595
833 2 0.53949 0.325594 0.652546
834 2 0.593157 0.448129 0.668521
835 2 0.698346 0.274877 0.669424
359 1 0.617684 0.322794 0.702548
336 1 0.870268 0.339913 0.662386
361 1 0.91377 0.364639 0.702832
365 1 0.769714 0.406715 0.686454
811 2 0.0172646 0.623831 0.658822
812 2 0.191136 0.588814 0.654435
836 2 0.137655 0.76131 0.665592
362 1 0.118729 0.544985 0.689927
838 2 0.468684 0.547931 0.666654
862 2 0.262519 0.729232 0.687322
368 1 0.321655 0.560214 0.684628
839 2 0.733396 0.553307 0.660695
344 1 0.548652 0.656644 0.646073
864 2 0.642862 0.524539 0.704522
369 1 0.522306 0.668919 0.69475
370 1 0.698062 0.658979 0.689714
341 1 0.871104 0.670986 0.662511
861 2 0.977053 0.676712 0.694742
366 1 0.873864 0.542793 0.684285
846 2 0.069109 0.918036 0.649693
847 2 0.239751 0.874528 0.661733
372 1 0.112508 0.867867 0.690673
828 2 0.420496 0.956583 0.682499
343 1 0.432762 0.744475 0.656139
848 2 0.382962 0.808037 0.688335
872 2 0.264576 0.925713 0.70385
844 2 0.608247 0.808055 0.671326
350 1 0.696912 0.920482 0.652562
374 1 0.55701 0.976329 0.663671
375 1 0.719064 0.974463 0.698768
841 2 0.977694 0.811225 0.680664
825 2 0.889269 0.932228 0.655209
845 2 0.813063 0.819824 0.672555
352 1 0.999326 0.973134 0.677239
875 2 0.886101 0.90563 0.707362
377 1 0.17004 0.0377337 0.739644
881 2 0.154075 0.18961 0.73806
900 2 0.00404918 0.120086 0.742236
353 1 0.28843 0.0886696 0.714972
858 2 0.38306 0.213082 0.722884
383 1 0.334932 0.131637 0.754429
354 1 0.490883 0.141598 0.735941
855 2 0.668497 0.144831 0.731311
830 2 0.851771 0.164181 0.730844
879 2 0.797733 0.113401 0.76276
856 2 0.218278 0.352292 0.72518
386 1 0.0788357 0.418229 0.719114
885 2 0.0360762 0.515146 0.752177
411 1 0.0665122 0.333587 0.756819
857 2 0.370822 0.379136 0.737666
863 2 0.455027 0.486244 0.714512
882 2 0.441095 0.264787 0.755922
854 2 0.634566 0.273829 0.754155
859 2 0.702975 0.400758 0.728105
389 1 0.527775 0.323708 0.730935
889 2 0.57969 0.461066 0.739088
381 1 0.959585 0.277065 0.730124
360 1 0.773437 0.27434 0.710995
385 1 0.829161 0.267988 0.761051
384 1 0.867415 0.427867 0.739493
367 1 0.136696 0.737851 0.708106
886 2 0.0630111 0.599604 0.723999
866 2 0.103949 0.701717 0.758016
392 1 0.236809 0.588778 0.759072
867 2 0.241973 0.691738 0.730549
387 1 0.290835 0.506997 0.722494
393 1 0.37445 0.642147 0.710937
893 2 0.384183 0.680867 0.763075
394 1 0.694197 0.610225 0.730064
868 2 0.61033 0.736245 0.722891
892 2 0.498646 0.608889 0.74221
399 1 0.637871 0.649911 0.760409
860 2 0.961001 0.517762 0.712184
865 2 0.941128 0.649113 0.747286
391 1 0.769279 0.723548 0.746326
870 2 0.823938 0.705495 0.711264
390 1 0.817159 0.532755 0.720405
890 2 0.811704 0.571091 0.766239
871 2 0.0389663 0.965937 0.725543
398 1 0.15732 0.866219 0.733846
397 1 0.249776 0.780591 0.764311
382 1 0.314703 0.959407 0.754524
373 1 0.340821 0.818455 0.726578
898 2 0.483945 0.809826 0.736129
873 2 0.434554 0.97605 0.721361
869 2 0.732217 0.843098 0.717335
874 2 0.553678 0.877482 0.705075
379 1 0.584914 0.988977 0.752403
400 1 0.632398 0.829811 0.753513
371 1 0.972764 0.781316 0.725999
376 1 0.916941 0.979249 0.74883
380 1 0.757746 0.981339 0.73731
396 1 0.869591 0.841061 0.762602
876 2 0.0472872 0.0125627 0.771021
880 2 0.0839296 0.165574 0.773445
402 1 0.21672 0.10599 0.782498
906 2 0.127919 0.174149 0.825834
922 2 0.0590979 0.0508932 0.81106
877 2 0.390888 0.171902 0.792828
378 1 0.471677 0.0620106 0.777093
853 2 0.616281 0.118625 0.768323
878 2 0.549688 0.123262 0.805147
909 2 0.705406 0.236216 0.787477
904 2 0.729209 0.0716636 0.796682
934 2 0.623577 0.235441 0.818399
405 1 0.899935 0.00302741 0.785484
435 1 0.926387 0.160059 0.786598
924 2 0.781453 0.208073 0.821268
406 1 0.183882 0.431278 0.763842
416 1 0.0756475 0.442499 0.800491
407 1 0.233178 0.271193 0.766559
912 2 0.209634 0.371669 0.800384
417 1 0.0439158 0.285974 0.798589
412 1 0.335201 0.477953 0.770094
388 1 0.474935 0.40781 0.772547
413 1 0.351106 0.321849 0.790508
883 2 0.535369 0.244638 0.784824
888 2 0.611734 0.376475 0.801028
414 1 0.74032 0.391537 0.77304
884 2 0.931895 0.404448 0.772671
410 1 0.866074 0.315949 0.801092
915 2 0.882691 0.458604 0.819954
891 2 0.0621821 0.592217 0.788214
418 1 0.211042 0.537014 0.792599
887 2 0.483962 0.552693 0.777141
424 1 0.307703 0.733423 0.80209
443 1 0.368744 0.581714 0.804979
395 1 0.661254 0.515202 0.77404
415 1 0.713111 0.52177 0.815622
919 2 0.52119 0.727463 0.772186
430 1 0.558904 0.646443 0.805101
910 2 0.918062 0.612846 0.79957
895 2 0.962784 0.719327 0.778976
420 1 0.799357 0.696613 0.783107
897 2 0.167493 0.908669 0.769683
896 2 0.0248739 0.852098 0.766542
422 1 0.175342 0.776091 0.803271
428 1 0.239267 0.974341 0.812626
421 1 0.0456906 0.889297 0.808968
423 1 0.406014 0.827084 0.77057
403 1 0.365645 0.953436 0.796313
448 1 0.330232 0.84942 0.826867
404 1 0.523099 0.906705 0.783165
899 2 0.652841 0.791967 0.791597
449 1 0.541193 0.818668 0.815687
450 1 0.724682 0.931415 0.81485
425 1 0.720691 0.939277 0.772385
911 2 0.980635 0.740056 0.81787
401 1 0.925807 0.987998 0.822436
920 2 0.812343 0.827689 0.799764
901 2 0.19391 0.21624 0.858403
905 2 0.0375964 0.0725047 0.860134
447 1 0.189365 0.0695588 0.864186
931 2 0.0262002 0.228353 0.866347
431 1 0.297843 0.117089 0.828875
902 2 0.412591 0.0125248 0.829755
409 1 0.427858 0.237132 0.824307
427 1 0.335984 0.140382 0.865356
933 2 0.504775 0.246081 0.872837
453 1 0.365429 0.00318743 0.878223
903 2 0.527284 0.030631 0.867227
949 2 0.712626 0.0661166 0.836859
929 2 0.638075 0.135064 0.88068
434 1 0.556355 0.151849 0.848256
930 2 0.942213 0.17423 0.826241
429 1 0.816083 0.156236 0.858074
408 1 0.123311 0.351366 0.859104
940 2 0.127789 0.495756 0.833299
908 2 0.277033 0.28201 0.8287
439 1 0.478868 0.370047 0.832352
937 2 0.284695 0.441564 0.836544
433 1 0.337666 0.387628 0.874355
440 1 0.753853 0.370538 0.826042
939 2 0.627141 0.432594 0.852125
964 2 0.682817 0.271433 0.861023
436 1 0.986533 0.353303 0.834897
944 2 0.808141 0.46092 0.852801
935 2 0.847046 0.309897 0.870313
472 1 0.112995 0.626182 0.85825
917 2 0.235566 0.676169 0.830895
470 1 0.0293727 0.523926 0.878485
497 1 0.147469 0.745072 0.883056
913 2 0.406863 0.502014 0.852163
918 2 0.387018 0.679214 0.869008
419 1 0.433782 0.699713 0.828357
942 2 0.25491 0.576548 0.862187
894 2 0.541263 0.549707 0.832322
925 2 0.679356 0.740462 0.829349
914 2 0.704959 0.594012 0.850051
444 1 0.566123 0.666401 0.851205
943 2 0.690556 0.728924 0.873165
441 1 0.949724 0.592291 0.839264
445 1 0.825793 0.656243 0.826285
945 2 0.854095 0.620896 0.871242
946 2 0.961729 0.751609 0.862421
473 1 0.0955973 0.777183 0.844297
921 2 0.996217 0.883763 0.854385
426 1 0.128109 0.938562 0.841939
499 1 0.212695 0.851487 0.864622
947 2 0.374264 0.871745 0.863677
923 2 0.57983 0.986741 0.821391
948 2 0.520069 0.820239 0.864547
446 1 0.678547 0.874036 0.849894
974 2 0.827324 0.94287 0.855453
941 2 0.810463 0.805733 0.839634
475 1 0.840879 0.847551 0.884739
926 2 0.0712444 0.00339871 0.893712
907 2 0.22819 0.16886 0.899407
437 1 0.0762813 0.214442 0.907225
457 1 0.148465 0.117052 0.929152
928 2 0.406651 0.153094 0.898921
478 1 0.477245 0.127434 0.936529
459 1 0.60836 0.155348 0.922081
451 1 0.992619 0.0878294 0.919611
460 1 0.884561 0.104923 0.889649
455 1 0.76922 0.18043 0.908298