ITEM: TIMESTEP
16730
ITEM: NUMBER OF ATOMS
1000
ITEM: BOX BOUNDS pp pp pp
0.0000000000000000e+00 6.2996052494743662e+00
0.0000000000000000e+00 6.2996052494743662e+00
0.0000000000000000e+00 2.5198420997897465e+01
ITEM: ATOMS id type xs ys zs
581 2 0.985884 0.083249 0.0626909
471 1 0.98921 0.0578621 0.00372509
51 1 0.0841369 0.171479 0.0411307
951 2 0.140853 0.0182263 0.0348214
903 2 0.192254 0.149614 0.953181
526 2 0.404789 0.104564 0.0137633
512 2 0.231988 0.144412 0.0249464
548 2 0.317143 0.0306694 0.0386434
34 1 0.45106 0.218816 0.0481674
96 1 0.49607 0.990223 0.00132431
518 2 0.694131 0.0300295 0.0335027
29 1 0.559566 0.215981 0.0164276
507 2 0.608858 0.1397 0.0478677
918 2 0.864296 0.0366276 0.0367879
71 1 0.940849 0.247046 0.0336908
973 2 0.787128 0.190527 0.0296333
510 2 0.183853 0.376089 0.0483772
927 2 0.0778416 0.329048 0.0200905
482 1 0.257775 0.521846 0.038409
52 1 0.358111 0.343048 0.0624793
952 2 0.26362 0.287785 0.0285911
511 2 0.356907 0.411237 0.0252181
503 2 0.604649 0.402029 0.989927
986 2 0.371517 0.262473 0.00386657
27 1 0.667968 0.307957 0.0302108
17 1 0.556543 0.334235 0.0701138
73 1 0.753209 0.433397 0.01197
13 1 0.918986 0.37669 0.00360204
529 2 0.811555 0.493427 0.0494735
977 2 0.814236 0.307749 0.0477042
485 1 0.911299 0.410409 0.0769251
454 1 0.107366 0.532737 0.0258288
85 1 0.10837 0.564654 0.0627032
523 2 0.203617 0.588624 0.999437
997 2 0.0156087 0.614388 0.993625
9 1 0.256228 0.662417 0.0655719
63 1 0.448106 0.528466 0.0353548
48 1 0.349105 0.626748 0.02352
947 2 0.413717 0.702294 0.0574455
978 2 0.450419 0.625733 0.994779
552 2 0.535743 0.484121 0.0706249
79 1 0.562651 0.551486 0.0140659
15 1 0.576033 0.650612 0.0541634
487 1 0.98772 0.446416 0.0474134
987 2 0.9829 0.616028 0.0405637
520 2 0.724331 0.618714 0.0409997
49 1 0.84553 0.720004 0.050694
36 1 0.78584 0.893549 0.0290543
498 1 0.994131 0.944059 0.0312375
494 1 0.161711 0.992341 0.985842
70 1 0.104272 0.842855 0.0396667
23 1 0.272235 0.814938 0.0422075
12 1 0.410724 0.899574 0.0268466
455 1 0.358372 0.787184 0.99682
979 2 0.245567 0.934239 0.0162884
33 1 0.491315 0.731758 0.022156
4 1 0.585409 0.90297 0.0271887
524 2 0.688686 0.820144 0.0560566
37 1 0.0379141 0.777636 0.0123439
525 2 0.751477 0.967837 0.0638387
495 1 0.756567 0.988072 0.997495
488 1 0.0092038 0.907033 0.99515
560 2 0.124993 0.111783 0.0806651
559 2 0.993344 0.0558721 0.130281
92 1 0.286827 0.194912 0.0597458
546 2 0.185508 0.284119 0.0813818
589 2 0.0924024 0.203369 0.106266
89 1 0.401901 0.233876 0.093162
516 2 0.460385 0.0495944 0.0506265
599 2 0.228486 0.104921 0.1148
543 2 0.388848 0.109984 0.119684
45 1 0.59873 0.993519 0.0753188
565 2 0.709043 0.393974 0.0721257
554 2 0.628943 0.211548 0.0814502
558 2 0.531102 0.218444 0.113551
528 2 0.861714 0.237852 0.0836787
982 2 0.763043 0.151766 0.0665129
967 2 0.862763 0.0163232 0.0847621
57 1 0.165646 0.379294 0.117135
65 1 0.0640047 0.444087 0.0798684
527 2 0.503237 0.359786 0.0255027
561 2 0.611593 0.392872 0.106808
78 1 0.314112 0.361455 0.104292
477 1 0.636568 0.454464 0.0399151
42 1 0.800039 0.414026 0.102357
575 2 0.980355 0.331063 0.117575
521 2 0.755311 0.560541 0.0870519
41 1 0.0251608 0.280028 0.080877
77 1 0.940002 0.468018 0.110001
486 1 0.893386 0.182488 0.122621
7 1 0.181149 0.649176 0.0956411
985 2 0.102828 0.552452 0.11776
594 2 0.00872794 0.664466 0.0967298
28 1 0.205794 0.500179 0.087545
139 1 0.125783 0.685781 0.0369104
514 2 0.358116 0.548863 0.0722168
11 1 0.236988 0.552781 0.1361
56 1 0.613495 0.549791 0.104206
533 2 0.496113 0.628016 0.0899909
86 1 0.696474 0.705774 0.099532
64 1 0.612435 0.659903 0.135785
35 1 0.90135 0.581846 0.067088
40 1 0.847303 0.706171 0.0888231
590 2 0.718722 0.498519 0.130097
963 2 0.232787 0.839847 0.124217
555 2 0.220949 0.944234 0.0581404
38 1 0.170712 0.947885 0.100776
542 2 0.176263 0.790772 0.0728896
597 2 0.0437474 0.94236 0.0840609
547 2 0.391055 0.855342 0.119694
537 2 0.316393 0.760267 0.0871442
513 2 0.318518 0.0210422 0.0791123
95 1 0.502277 0.882293 0.0584055
545 2 0.550999 0.769171 0.0790595
468 1 0.47731 0.046313 0.0890946
998 2 0.499868 0.750357 0.115365
21 1 0.651568 0.938644 0.106424
532 2 0.0170738 0.743002 0.0608921
98 1 0.956727 0.811493 0.0949786
598 2 0.673825 0.819813 0.12914
534 2 0.764413 0.844308 0.0938575
39 1 0.939421 0.872126 0.0589971
577 2 0.132699 0.0641798 0.143122
539 2 0.040184 0.13763 0.165119
54 1 0.125172 0.00948336 0.176381
638 2 0.0950613 0.263496 0.150453
105 1 0.407757 0.2624 0.148879
68 1 0.472584 0.076322 0.155759
112 1 0.266683 0.136881 0.152178
72 1 0.299652 0.960196 0.138129
59 1 0.58949 0.0715843 0.113262
541 2 0.766547 0.0937891 0.106957
99 1 0.581452 0.183974 0.14838
566 2 0.739304 0.268186 0.104588
550 2 0.781019 0.969673 0.127893
93 1 0.941021 0.262019 0.153977
118 1 0.870577 0.0128632 0.160221
544 2 0.0624252 0.433063 0.145847
957 2 0.0299845 0.278795 0.186216
82 1 0.224861 0.402931 0.152776
636 2 0.0427216 0.672242 0.140101
76 1 0.246766 0.250237 0.124911
671 2 0.493479 0.244237 0.185565
62 1 0.472308 0.39917 0.125717
557 2 0.522501 0.41216 0.183009
576 2 0.659797 0.338907 0.142207
100 1 0.717399 0.483713 0.165325
90 1 0.70143 0.250166 0.169783
60 1 0.805577 0.339235 0.137691
80 1 0.87939 0.48374 0.145167
125 1 0.160606 0.556968 0.167852
107 1 0.204001 0.693009 0.132487
553 2 0.0207397 0.774718 0.175855
97 1 0.307273 0.783639 0.159794
538 2 0.372786 0.54378 0.110748
551 2 0.361378 0.693388 0.125711
595 2 0.363898 0.458775 0.149448
519 2 0.478673 0.585471 0.132849
50 1 0.574371 0.464879 0.1476
116 1 0.487268 0.735995 0.154342
981 2 0.874039 0.600349 0.115889
83 1 0.890278 0.689083 0.161781
517 2 0.858608 0.85312 0.165265
642 2 0.0344383 0.608494 0.187534
88 1 0.993979 0.939905 0.161376
578 2 0.0110302 0.963915 0.197437
53 1 0.0703553 0.928587 0.129355
141 1 0.174083 0.87224 0.16213
509 2 0.38926 0.884607 0.0786496
570 2 0.405171 0.909223 0.16212
587 2 0.475942 0.979442 0.126609
502 2 0.561251 0.873683 0.156924
14 1 0.705301 0.789028 0.166293
108 1 0.72577 0.935207 0.173377
104 1 0.975462 0.800255 0.133546
44 1 0.929436 0.925214 0.118149
10 1 0.823789 0.79522 0.128873
583 2 0.0389194 0.100501 0.201453
127 1 0.22727 0.018233 0.215403
580 2 0.0024575 0.207964 0.231046
569 2 0.183337 0.189125 0.181697
667 2 0.152583 0.154623 0.228472
536 2 0.531217 0.0286885 0.225736
74 1 0.370893 0.151615 0.179125
971 2 0.643928 0.022759 0.147657
530 2 0.767343 0.0942377 0.179381
117 1 0.729309 0.167367 0.138777
626 2 0.631369 0.14442 0.195463
109 1 0.904879 0.184784 0.187676
102 1 0.707312 0.0345585 0.218912
601 2 0.939559 0.122091 0.260231
628 2 0.96868 0.993729 0.235474
535 2 0.143093 0.39516 0.187958
585 2 0.239001 0.443796 0.225449
91 1 0.30678 0.475758 0.185791
611 2 0.312693 0.312839 0.21309
101 1 0.306735 0.315123 0.174991
609 2 0.452472 0.464254 0.215278
586 2 0.425489 0.250868 0.232763
55 1 0.610861 0.442178 0.229365
84 1 0.613924 0.533662 0.192841
607 2 0.56036 0.300766 0.221579
670 2 0.676093 0.378734 0.196099
1 1 0.979151 0.419288 0.178453
157 1 0.805599 0.367748 0.176611
564 2 0.873413 0.547129 0.180389
582 2 0.0254951 0.420656 0.215743
87 1 0.123841 0.564313 0.21631
169 1 0.0713775 0.718797 0.218054
166 1 0.121548 0.452275 0.250964
144 1 0.160697 0.728567 0.173422
606 2 0.336183 0.585765 0.216651
593 2 0.287859 0.633058 0.171258
665 2 0.493672 0.642872 0.205995
115 1 0.398125 0.751255 0.226507
604 2 0.757013 0.627109 0.161216
556 2 0.468221 0.557457 0.177304
150 1 0.64371 0.738311 0.208314
647 2 0.600053 0.662655 0.173994
622 2 0.95106 0.546714 0.215449
94 1 0.937478 0.774229 0.244151
111 1 0.790952 0.66525 0.238115
122 1 0.150026 0.87914 0.202835
591 2 0.23149 0.707692 0.216
563 2 0.147089 0.78905 0.249557
562 2 0.443644 0.995071 0.194124
635 2 0.421174 0.760188 0.271063
120 1 0.285222 -0.00263255 0.177239
613 2 0.268424 0.89291 0.233487
66 1 0.31405 0.825413 0.197162
149 1 0.490083 0.779163 0.193071
540 2 0.607023 0.0110783 0.185526
572 2 0.572093 0.174583 0.23521
113 1 0.786531 0.763053 0.199601
632 2 0.899617 0.6856 0.210488
615 2 0.851279 0.970424 0.197323
596 2 0.973077 0.849581 0.214316
648 2 0.818459 0.870554 0.225281
128 1 0.233519 0.0296022 0.258009
652 2 0.126409 0.143739 0.277646
603 2 0.380662 0.0878377 0.220884
124 1 0.321913 0.0977034 0.287627
138 1 0.398517 0.235558 0.272126
140 1 0.246 0.172671 0.256887
579 2 0.427545 0.0677984 0.259287
110 1 0.578165 0.059643 0.272208
151 1 0.468033 0.164864 0.298084
129 1 0.714903 0.169555 0.254891
623 2 0.556011 0.247595 0.269461
679 2 0.645279 0.158729 0.297539
26 1 0.87179 0.11479 0.216737
176 1 0.0504595 0.995408 0.270367
630 2 0.799691 0.026685 0.246608
610 2 0.14002 0.295573 0.21619
618 2 0.123342 0.309246 0.273942
130 1 0.974444 0.338743 0.246367
608 2 0.273724 0.351232 0.253984
612 2 0.369622 0.432507 0.291242
592 2 0.708711 0.309124 0.238108
653 2 0.466036 0.381254 0.253354
161 1 0.750287 0.22162 0.207507
621 2 0.774505 0.444386 0.221866
637 2 0.657702 0.518642 0.259903
135 1 0.841749 0.230134 0.241206
567 2 0.891602 0.351503 0.211763
641 2 0.959428 0.492375 0.253771
634 2 0.211401 0.450732 0.285723
247 1 0.0822549 0.696603 0.278792
121 1 0.23049 0.580265 0.244991
568 2 -0.000463361 0.636396 0.246527
651 2 0.37037 0.517973 0.250002
617 2 0.498295 0.506419 0.273976
697 2 0.216979 0.595834 0.288072
531 2 0.611827 0.623198 0.23219
675 2 0.68162 0.671887 0.28183
164 1 0.486185 0.624114 0.252699
619 2 0.574192 0.797978 0.244546
148 1 0.386015 0.607306 0.282846
152 1 0.857516 0.560638 0.272813
81 1 0.790292 0.785551 0.26876
691 2 0.830142 0.389212 0.253828
142 1 0.225186 0.85358 0.277302
616 2 0.113718 0.954858 0.236668
614 2 0.05004 0.849839 0.28298
177 1 0.167088 0.954362 0.302198
69 1 0.416422 0.924722 0.231379
134 1 0.367573 0.909721 0.275958
672 2 0.269194 0.710605 0.263923
103 1 0.408809 0.82589 0.313937
131 1 0.579042 0.882768 0.211978
147 1 0.517173 0.919415 0.262987
195 1 0.472394 0.643785 0.321498
605 2 0.643768 0.959449 0.244566
625 2 0.881791 0.903509 0.27047
655 2 0.660513 0.835586 0.280553
119 1 0.111943 0.348945 0.319509
680 2 0.0312637 0.0416914 0.307701
662 2 0.904056 0.966766 0.32903
690 2 0.0461972 0.15264 0.345771
185 1 0.19453 0.0725315 0.328839
201 1 0.313815 0.196652 0.313191
183 1 0.450699 1.00092 0.295759
190 1 0.595403 0.217219 0.356803
686 2 0.546154 0.239577 0.322551
238 1 0.542504 0.0646493 0.32413
172 1 0.900523 0.124005 0.296185
649 2 0.0030467 0.244277 0.293515
189 1 0.673252 0.1383 0.332337
123 1 0.787228 0.229158 0.288612
180 1 0.152676 0.46458 0.342844
145 1 0.00828155 0.408819 0.280617
179 1 0.124208 0.19903 0.315203
639 2 0.991602 0.459842 0.346962
126 1 0.403881 0.30073 0.32218
640 2 0.259108 0.275206 0.287433
656 2 0.355122 0.39432 0.352612
137 1 0.281381 0.398013 0.320273
657 2 0.533991 0.420242 0.327358
627 2 0.67256 0.338081 0.286557
67 1 0.647386 0.36978 0.347006
699 2 0.707083 0.276087 0.320788
643 2 0.49153 0.338479 0.358852
170 1 0.727075 0.542395 0.324839
160 1 0.865228 0.363444 0.291872
154 1 0.752566 0.470844 0.288902
158 1 0.862852 0.557704 0.348925
133 1 0.889003 0.197189 0.330316
664 2 0.977914 0.320714 0.334758
620 2 0.0695666 0.503009 0.310758
629 2 0.893808 0.493255 0.306685
178 1 0.979129 0.630404 0.308989
114 1 0.502049 0.344824 0.294497
168 1 0.384206 0.505068 0.320736
661 2 0.305245 0.539354 0.356613
720 2 0.182221 0.622691 0.341533
650 2 0.60888 0.524148 0.301618
146 1 0.533803 0.78356 0.330306
155 1 0.537008 0.712519 0.28965
198 1 0.704941 0.715624 0.33206
231 1 0.915153 0.712712 0.2772
700 2 0.0119434 0.625002 0.347793
175 1 0.813639 0.652554 0.304534
682 2 0.978561 0.778683 0.31442
159 1 0.0630842 0.897267 0.331367
153 1 0.13876 0.781779 0.31765
221 1 0.23239 0.880459 0.341689
624 2 0.300259 0.738263 0.302629
658 2 0.304365 0.933616 0.313288
163 1 0.361947 0.853161 0.36202
696 2 0.464867 0.94205 0.337079
719 2 0.777244 0.977639 0.286406
724 2 0.606356 0.946652 0.300477
588 2 0.833276 0.814196 0.314692
673 2 0.684583 0.85889 0.316463
202 1 0.747821 0.0165875 0.326655
181 1 0.12127 0.139976 0.389367
660 2 0.135641 0.00583107 0.360746
236 1 0.244008 0.131053 0.369698
687 2 0.261061 0.242746 0.35129
602 2 0.404051 0.139033 0.345653
136 1 0.465605 0.166932 0.381429
187 1 0.693937 0.174612 0.395266
698 2 0.674253 0.07231 0.366065
633 2 0.686777 0.92836 0.391174
716 2 0.778233 0.25565 0.353454
749 2 0.837854 0.105905 0.355133
165 1 0.939342 0.213527 0.369186
715 2 0.979002 0.0339329 0.359817
677 2 0.244592 0.340894 0.384606
584 2 0.110919 0.409514 0.38374
106 1 0.0951138 0.293914 0.359556
156 1 9.37394e-05 0.496396 0.392633
211 1 0.0312565 0.284864 0.400915
678 2 0.397064 0.322627 0.390598
188 1 0.419812 0.471559 0.387394
143 1 0.466446 0.530553 0.356956
669 2 0.546519 0.387023 0.394545
692 2 0.758352 0.345224 0.383361
237 1 0.640303 0.497803 0.36863
194 1 0.831059 0.388015 0.331869
710 2 0.910971 0.392765 0.37827
709 2 0.847538 0.206013 0.399466
688 2 0.262741 0.486062 0.396102
196 1 0.122237 0.549222 0.37394
199 1 0.242272 0.757466 0.422072
200 1 0.0717854 0.662273 0.402688
207 1 0.366158 0.688187 0.349933
220 1 0.360015 0.609376 0.386869
645 2 0.581611 0.626179 0.345186
171 1 0.522521 0.567051 0.392873
631 2 0.655927 0.766069 0.369887
725 2 0.499996 0.704012 0.374422
209 1 0.816523 0.732749 0.383884
779 2 0.609549 0.680593 0.410629
644 2 0.789924 0.496416 0.376672
191 1 0.905182 0.599826 0.382566
674 2 0.699928 0.632052 0.370686
666 2 0.702164 0.546374 0.407857
225 1 0.0990178 0.775359 0.360564
212 1 0.219549 0.902524 0.379395
205 1 0.121008 0.863099 0.400644
712 2 0.232676 0.691852 0.382741
197 1 0.322974 0.0156883 0.350886
706 2 0.546139 0.0390015 0.364708
646 2 0.445289 0.977345 0.394461
741 2 0.360044 0.757908 0.39944
703 2 0.640932 0.926892 0.35026
717 2 0.520693 0.85522 0.370051
173 1 0.533191 0.806795 0.404032
676 2 0.83547 0.701558 0.349638
705 2 0.94014 0.816064 0.350819
654 2 0.986609 0.776612 0.393249
689 2 0.819431 0.0256305 0.395055
224 1 0.830375 0.915243 0.368822
213 1 0.357133 0.964884 0.452755
184 1 0.167729 0.205306 0.428668
791 2 0.178652 0.0626649 0.446359
182 1 0.457521 0.112587 0.418994
321 1 0.304015 0.187993 0.399747
162 1 0.569536 0.206868 0.41463
792 2 0.316571 0.142697 0.442007
193 1 0.737935 0.180716 0.430362
233 1 0.62608 0.219686 0.458933
718 2 0.875185 0.196414 0.462578
702 2 0.606393 0.0432022 0.403542
659 2 0.860718 0.0881626 0.435199
240 1 0.963168 0.112106 0.397435
772 2 0.0117602 0.0700107 0.435699
242 1 0.179171 0.364211 0.441045
265 1 0.34177 0.294521 0.459341
767 2 0.0423421 0.283049 0.437544
167 1 0.421908 0.473204 0.427779
736 2 0.307377 0.359146 0.421145
713 2 0.454282 0.247888 0.434517
695 2 0.347599 0.454945 0.476253
218 1 0.616579 0.372128 0.475914
132 1 0.528301 0.567941 0.444297
234 1 0.746217 0.311327 0.454871
216 1 0.685186 0.37031 0.419723
714 2 0.542694 0.389266 0.440474
685 2 0.687237 0.479666 0.457204
239 1 0.89319 0.284718 0.4324
217 1 0.832841 0.449088 0.419793
261 1 0.0190191 0.424509 0.425716
275 1 0.909874 0.485397 0.454516
203 1 0.145978 0.54471 0.420972
186 1 0.0604587 0.490047 0.455373
222 1 0.157155 0.630957 0.455291
223 1 0.467485 0.666509 0.419117
296 1 0.318693 0.58902 0.425891
745 2 0.218714 0.500442 0.455183
707 2 0.384549 0.617318 0.461579
255 1 0.673883 0.651015 0.452433
206 1 0.706367 0.771902 0.421944
737 2 0.961369 0.58593 0.426142
723 2 0.783666 0.58298 0.437074
693 2 0.942908 0.675198 0.45884
681 2 0.135365 0.0182055 0.413033
257 1 0.295207 0.0181434 0.403519
284 1 0.100262 0.876462 0.448739
746 2 0.21219 0.76128 0.461193
174 1 0.374437 0.785422 0.44641
708 2 0.242733 0.897091 0.435647
733 2 0.425542 0.877008 0.422842
229 1 0.763902 0.929691 0.429823
232 1 0.544965 0.980052 0.435682
727 2 0.554138 0.764445 0.446666
683 2 0.674745 0.0512433 0.439193
246 1 0.876422 0.71415 0.420864
251 1 0.978481 0.946026 0.390717
684 2 0.938179 0.868658 0.420074
755 2 0.0444708 0.739313 0.439385
774 2 0.810466 0.800612 0.450949
763 2 0.139472 0.212183 0.466791
290 1 0.143723 0.0793674 0.506936
272 1 0.27357 0.116348 0.485361
711 2 0.0692665 0.0694878 0.473119
781 2 0.113637 0.253039 0.512548
208 1 0.476904 0.944619 0.475448
235 1 0.536302 0.0284551 0.512357
738 2 0.446169 0.102528 0.461372
287 1 0.361488 0.966283 0.505502
742 2 0.428316 0.125912 0.506892
264 1 0.616329 0.0562163 0.474326
289 1 0.716465 0.0391322 0.519144
219 1 0.644633 0.193467 0.510133
734 2 0.758239 0.20674 0.484928
804 2 0.865155 0.038221 0.501571
215 1 1.00351 0.191354 0.483676
729 2 0.949056 0.155341 0.518336
759 2 0.841477 0.305338 0.519137
732 2 0.200308 0.363916 0.486597
244 1 0.986408 0.350338 0.515177
192 1 0.999052 0.507447 0.560208
315 1 0.104187 0.433002 0.537413
259 1 0.299225 0.275026 0.498727
269 1 0.468048 0.25316 0.476185
285 1 0.445314 0.366399 0.506521
204 1 0.522202 0.499765 0.477861
721 2 0.6091 0.371137 0.515163
744 2 0.799956 0.470809 0.539698
739 2 0.869494 0.360369 0.472542
740 2 0.037095 0.347762 0.474716
260 1 0.730304 0.404413 0.500313
278 1 0.0956851 0.590332 0.53551
762 2 0.157586 0.646049 0.499073
785 2 0.10956 0.493722 0.497934
701 2 0.988481 0.561665 0.482948
766 2 0.351867 0.590101 0.501991
249 1 0.466704 0.510287 0.520644
752 2 0.261955 0.734694 0.518206
258 1 0.296602 0.435039 0.513926
227 1 0.511875 0.649089 0.491424
300 1 0.680725 0.589913 0.493359
314 1 0.613962 0.755889 0.491977
722 2 0.799881 0.630106 0.47768
754 2 0.720401 0.693417 0.516917
230 1 0.842489 0.506037 0.500977
663 2 0.926788 0.720182 0.498428
747 2 0.165327 0.922752 0.482071
757 2 0.0197985 0.0379979 0.528734
735 2 0.332999 0.861351 0.482113
726 2 0.0650043 0.73226 0.483338
793 2 0.0834731 0.753024 0.519949
770 2 0.00781607 0.95114 0.491224
214 1 0.46406 0.806453 0.495782
210 1 0.361343 0.856006 0.531778
731 2 0.459437 0.69337 0.532381
309 1 0.657133 0.913985 0.504311
753 2 0.650802 0.875809 0.461792
282 1 0.764682 0.962552 0.466909
279 1 0.588706 0.81366 0.536487
704 2 0.90632 0.022225 0.466475
250 1 0.940129 0.850808 0.464463
668 2 0.784793 0.836963 0.496787
799 2 0.139742 0.990907 0.560994
277 1 0.920003 0.0904133 0.559222
302 1 0.133137 0.208055 0.556452
310 1 0.31231 0.0221236 0.540112
263 1 0.451113 0.12078 0.554755
798 2 0.498312 0.95772 0.54324
728 2 0.268674 0.171162 0.526398
764 2 0.303677 0.190406 0.567092
778 2 0.5995 0.0832297 0.544966
348 1 0.532592 0.0125342 0.58291
809 2 0.607991 0.158239 0.576376
824 2 0.754426 0.0439729 0.557437
294 1 0.965234 0.290701 0.582557
308 1 0.809834 0.146719 0.526569
320 1 0.782381 0.203722 0.564153
286 1 0.874271 0.0937196 0.599817
295 1 0.972061 0.246613 0.546712
298 1 0.095456 0.351258 0.569154
357 1 0.223734 0.308825 0.534869
366 1 0.402687 0.253022 0.532507
228 1 0.379324 0.4229 0.548765
270 1 0.55807 0.291337 0.544318
274 1 0.639569 0.313007 0.579545
761 2 0.721953 0.320341 0.544518
254 1 0.520949 0.421825 0.579219
694 2 0.617613 0.442332 0.548189
765 2 0.888093 0.382232 0.559519
811 2 0.232527 0.439403 0.568217
730 2 0.969825 0.700721 0.561691
283 1 0.0820085 0.57063 0.586448
748 2 0.252178 0.599222 0.544179
266 1 0.4242 0.887822 0.574391
267 1 0.29876 0.642024 0.589977
775 2 0.192197 0.717628 0.56435
322 1 0.456234 0.565374 0.560911
288 1 0.346427 0.73974 0.562028
273 1 0.608783 0.724037 0.578514
823 2 0.608405 0.588524 0.527961
245 1 0.729835 0.671469 0.556798
350 1 0.465774 0.68724 0.589449
750 2 0.633129 0.566565 0.577715
262 1 0.931809 0.577813 0.531669
790 2 0.817572 0.588793 0.574903
795 2 0.758627 0.449263 0.586194
306 1 0.826473 0.762663 0.576645
243 1 0.966524 0.953002 0.576144
256 1 0.0164066 0.848291 0.549985
751 2 0.227 0.880997 0.552818
780 2 0.113634 0.91656 0.521248
832 2 0.282451 0.0129878 0.581837
777 2 0.24776 0.81073 0.595838
372 1 0.609278 0.891037 0.568685
783 2 0.749754 0.889351 0.544672
789 2 0.880932 0.959299 0.535681
865 2 0.881087 0.786511 0.534432
291 1 0.809926 0.950131 0.582215
281 1 0.0532033 0.0810271 0.579519
802 2 0.160458 0.236921 0.647877
871 2 0.0158843 0.09654 0.63026
788 2 0.13114 0.025183 0.616558
800 2 0.0875445 0.90122 0.633583
319 1 0.391875 0.0972944 0.595817
803 2 0.25998 0.0989427 0.622209
376 1 0.402232 0.257525 0.638086
326 1 0.665476 0.00527715 0.622413
758 2 0.566017 0.136437 0.611171
304 1 0.762967 0.175252 0.626557
268 1 0.717959 0.0800879 0.594829
817 2 0.870312 0.0573128 0.642359
349 1 0.119786 0.200104 0.604992
782 2 0.219156 0.30582 0.589066
891 2 0.220806 0.351853 0.630452
341 1 0.349821 0.38155 0.615995
368 1 0.192529 0.469795 0.607277
299 1 0.382035 0.326257 0.578891
292 1 0.321482 0.238712 0.606108
794 2 0.480717 0.249602 0.595076
311 1 0.642451 0.280595 0.629149
769 2 0.643839 0.412269 0.609862
328 1 0.492532 0.372677 0.61432
845 2 0.780143 0.319831 0.655062
776 2 0.893426 0.469682 0.6024
331 1 0.927887 0.215814 0.615568
313 1 0.793007 0.278878 0.599551
271 1 0.901154 0.370737 0.633281
843 2 0.954657 0.62287 0.601061
825 2 0.054592 0.352939 0.608777
821 2 0.127962 0.499963 0.647655
850 2 0.132504 0.621319 0.623537
796 2 0.117607 0.726786 0.599204
860 2 0.26749 0.562808 0.640236
743 2 0.364607 0.751085 0.61448
241 1 0.370942 0.48661 0.583928
293 1 0.536309 0.556359 0.611349
226 1 0.621203 0.700049 0.618196
813 2 0.773327 0.442764 0.626596
826 2 0.751253 0.628038 0.605572
840 2 0.724882 0.644922 0.642379
797 2 0.860002 0.563713 0.628834
829 2 0.0233872 0.48453 0.622407
280 1 0.115278 0.880726 0.598277
822 2 0.968173 0.810032 0.594386
760 2 0.171822 0.770304 0.633489
332 1 0.958933 0.837864 0.634546
343 1 0.372518 0.90841 0.620335
818 2 0.237562 0.912248 0.632439
374 1 0.509878 0.998635 0.625625
819 2 0.465562 0.825857 0.647904
325 1 0.515787 0.837588 0.60401
297 1 0.698772 0.835183 0.597776
324 1 0.603576 0.749927 0.660392
849 2 0.697925 0.877304 0.646807
784 2 0.976377 0.957608 0.612551
301 1 0.835436 0.92964 0.620494
808 2 0.830274 0.733197 0.625852
305 1 0.862493 0.922853 0.65583
864 2 0.951551 0.677939 0.63756
416 1 0.246674 0.119543 0.701977
346 1 0.262004 0.989145 0.665816
863 2 0.141564 0.0714286 0.654787
361 1 0.902775 0.0571441 0.719109
787 2 0.292388 0.143784 0.662858
874 2 0.420902 0.0100667 0.657267
316 1 0.3496 0.991336 0.693847
812 2 0.523197 0.230786 0.68126
333 1 0.571178 0.0598673 0.674208
342 1 0.666973 -0.000189077 0.707658
353 1 0.714757 0.0641883 0.655809
276 1 0.485337 0.134549 0.644774
335 1 0.665032 0.205075 0.663552
807 2 0.940092 0.0718144 0.681429
827 2 0.859559 0.209354 0.673602
365 1 0.772043 0.100945 0.690078
370 1 0.889076 0.213077 0.710768
771 2 0.220119 0.331515 0.677516
861 2 0.0955302 0.202848 0.688193
386 1 0.101986 0.414326 0.687063
862 2 0.480096 0.36949 0.662345
834 2 0.492656 0.343485 0.708044
801 2 0.355085 0.288467 0.677868
364 1 0.40178 0.575565 0.669398
248 1 0.622915 0.34206 0.673882
859 2 0.633217 0.165453 0.707899
340 1 0.628457 0.450739 0.647923
303 1 0.953961 0.341212 0.670897
345 1 0.993678 0.204503 0.656719
387 1 0.0531095 0.306111 0.714742
816 2 0.751653 0.275521 0.690671
838 2 0.0730974 0.361197 0.647875
814 2 0.305907 0.432902 0.657051
842 2 0.313746 0.702074 0.656724
836 2 0.111921 0.669197 0.659217
253 1 0.421261 0.496819 0.63612
872 2 0.682737 0.573138 0.693502
815 2 0.46005 0.650962 0.636552
831 2 0.46466 0.702027 0.677624
768 2 0.521454 0.505884 0.680474
773 2 0.783124 0.45784 0.673068
847 2 0.580909 0.593689 0.654575
873 2 0.822191 0.623042 0.680996
355 1 0.073226 0.553808 0.68125
334 1 0.931725 0.48986 0.658996
379 1 0.955637 0.664843 0.673751
867 2 0.164729 0.851086 0.67456
252 1 0.993869 0.809314 0.668745
810 2 0.0392616 0.971103 0.667087
347 1 0.271445 0.781746 0.695677
869 2 0.221609 0.901414 0.705835
756 2 0.35296 0.855352 0.66741
317 1 0.447096 0.833996 0.700182
854 2 0.747706 0.921434 0.682913
327 1 0.577673 0.897399 0.677569
358 1 0.788287 0.777902 0.672441
846 2 0.89201 0.944545 0.692787
389 1 0.760932 0.713838 0.707749
359 1 0.0384469 0.159413 0.731941
930 2 0.131606 0.0200121 0.703942
921 2 0.0891432 0.0844988 0.76433
900 2 0.425328 0.121992 0.688308
323 1 0.363033 0.0558658 0.730768
307 1 0.477633 0.0396297 0.755491
880 2 0.197392 0.170949 0.753943
390 1 0.777086 0.314206 0.727725
837 2 0.611814 0.129956 0.746979
449 1 0.583865 0.225485 0.777685
443 1 0.508061 0.205347 0.729942
882 2 0.792974 0.983816 0.771761
830 2 0.904386 0.0668008 0.757531
853 2 0.749232 0.110433 0.737003
385 1 0.727843 0.240379 0.759011
338 1 0.232026 0.284854 0.713327
835 2 0.296976 0.4759 0.752947
848 2 0.163571 0.424701 0.729802
990 2 0.110797 0.305222 0.750974
851 2 0.349157 0.208317 0.733378
373 1 0.396591 0.199163 0.767446
858 2 0.372898 0.521981 0.723864
901 2 0.500953 0.456908 0.747613
375 1 0.636468 0.29646 0.734586
422 1 0.880902 0.408774 0.755441
839 2 0.903536 0.369858 0.712596
855 2 0.0210144 0.483588 0.715274
410 1 0.940352 0.261559 0.746789
460 1 0.782384 0.341166 0.79225
875 2 0.978145 0.51858 0.749311
424 1 0.251412 0.563365 0.690031
473 1 0.151233 0.68573 0.702471
881 2 0.237276 0.583296 0.731046
805 2 0.162718 0.582274 0.765068
896 2 0.330175 0.418582 0.701739
362 1 0.371217 0.670732 0.704032
844 2 0.636634 0.405663 0.710533
360 1 0.524985 0.635179 0.709932
397 1 0.776769 0.464482 0.719795
430 1 0.686072 0.691205 0.745674
935 2 0.629257 0.525058 0.733172
423 1 0.899324 0.584306 0.717288
898 2 0.814126 0.601732 0.754484
384 1 0.0548416 0.650183 0.737346
377 1 0.0164914 0.949631 0.740539
879 2 0.211995 0.72452 0.765371
852 2 0.182108 0.946464 0.746397
398 1 0.0665496 0.879007 0.706521
420 1 0.124722 0.786245 0.733
339 1 0.539278 0.94338 0.722106
318 1 0.331948 0.885416 0.740553
820 2 0.321528 0.737835 0.736231
396 1 0.465469 0.807995 0.744102
897 2 0.571078 0.85469 0.766074
833 2 0.406146 0.747019 0.774632
909 2 0.599384 0.788412 0.704293
886 2 0.717128 0.832098 0.729639
337 1 0.681365 0.965623 0.746188
330 1 0.870656 0.879045 0.727549
892 2 0.00827338 0.732753 0.706217
870 2 0.896606 0.715683 0.735232
413 1 0.0911633 0.284669 0.821522
363 1 0.311012 0.0119253 0.764482
412 1 0.376189 5.89416e-05 0.820895
928 2 0.341132 0.155689 0.806472
354 1 0.603581 0.058174 0.784125
884 2 0.722507 0.181801 0.800318
429 1 0.489774 0.315344 0.798359
462 1 0.494064 0.156163 0.797797
895 2 0.0523351 0.208188 0.790274
329 1 0.932694 0.302797 0.787651
356 1 0.879661 0.0490458 0.802748
457 1 0.0112064 0.0820361 0.822054
876 2 0.914747 0.35434 0.822262
441 1 0.169004 0.405674 0.797475
476 1 0.195768 0.313193 0.850303
408 1 0.271999 0.276394 0.773569
828 2 0.459758 0.317682 0.756313
984 2 0.326091 0.305638 0.809778
380 1 0.593902 0.413082 0.771363
312 1 0.375954 0.408705 0.779358
417 1 0.655065 0.393781 0.810419
889 2 0.735488 0.478052 0.771042
414 1 0.841021 0.492813 0.798404
893 2 0.0423455 0.431789 0.771885
806 2 0.759439 0.263849 0.845071
344 1 0.112799 0.697887 0.801646
912 2 0.161148 0.55895 0.806343
877 2 0.258673 0.708616 0.804471
841 2 0.342834 0.585288 0.77155
857 2 0.387469 0.622161 0.808585
400 1 0.556627 0.822541 0.803436
367 1 0.452459 0.621483 0.747893
910 2 0.478849 0.531525 0.779076
391 1 0.551811 0.669392 0.77274
915 2 0.523123 0.664327 0.815517
405 1 0.604513 0.525747 0.799848
972 2 0.993636 0.636433 0.781226
351 1 0.00430594 0.632045 0.819822
381 1 0.688327 0.643108 0.805607
404 1 0.805516 0.713714 0.7812
411 1 0.89549 0.88122 0.76882
856 2 0.839921 0.638632 0.816461
933 2 0.753807 0.484278 0.836528
942 2 0.0678162 0.813254 0.769471
425 1 0.105932 0.920232 0.823437
916 2 0.193647 0.156088 0.799256
406 1 0.024016 0.791334 0.828549
924 2 0.450303 0.931283 0.779713
941 2 0.259364 0.861747 0.780745
407 1 0.222878 1.00194 0.799937
383 1 0.413487 0.780491 0.811602
925 2 0.581013 0.957757 0.819172
382 1 0.749139 0.843605 0.767702
421 1 0.75182 0.986075 0.812107
352 1 0.0120769 0.974386 0.792343
899 2 0.898588 0.898999 0.803574
392 1 0.943928 0.760177 0.794123
497 1 0.903144 0.997224 0.837994
954 2 0.175974 0.0489491 0.843552
956 2 0.16786 0.145278 0.877002
483 1 0.992875 0.0859755 0.870542
428 1 0.151116 -0.00386137 0.894973
786 2 0.464261 0.172159 0.836147
452 1 0.346634 0.0807669 0.856929
463 1 0.42833 0.226189 0.875839
369 1 0.631016 0.0975286 0.831786
481 1 0.607663 0.249855 0.820771
868 2 0.57968 0.213516 0.868394
964 2 0.910573 0.197372 0.82539
976 2 0.778604 0.1154 0.831317
435 1 0.867646 0.186631 0.867016
953 2 0.737547 0.121852 0.87668
30 1 0.859622 0.00465669 0.883571
393 1 0.0305703 0.489245 0.804894
968 2 0.0285803 0.250797 0.858518
426 1 0.0671632 0.426527 0.841577
388 1 0.29665 0.454584 0.820236
418 1 0.209088 0.478356 0.84822
378 1 0.453075 0.444818 0.81929
434 1 0.488039 0.323673 0.843546
934 2 0.316474 0.220413 0.839588
501 2 0.326885 0.353187 0.865344
883 2 0.570402 0.48445 0.853437
949 2 0.629169 0.3634 0.870407
440 1 0.522835 0.577217 0.878744
955 2 0.796558 0.398189 0.868633
431 1 0.960409 0.378615 0.865515
966 2 0.927847 0.520484 0.845358
371 1 0.243591 0.62238 0.837201
905 2 0.0404256 0.617655 0.857836
461 1 0.0219578 0.745822 0.875994
932 2 0.385664 0.539014 0.852938
878 2 0.289173 0.662966 0.873603
445 1 0.548022 0.72612 0.87002
913 2 0.409231 0.683432 0.841463
919 2 0.638093 0.664687 0.83984
975 2 0.711579 0.523584 0.879029
939 2 0.549528 0.746255 0.912749
944 2 0.913517 0.728491 0.842824
394 1 0.817282 0.859532 0.83459
395 1 0.801722 0.624905 0.856782
890 2 0.182771 0.772113 0.847982
438 1 0.115525 0.845125 0.89702
894 2 0.235525 0.887162 0.870532
940 2 0.409259 0.768722 0.87598
937 2 0.557678 0.894599 0.872785
22 1 0.250078 0.862501 0.821366
401 1 0.389436 0.922761 0.856488
920 2 0.707251 0.820982 0.804132
887 2 0.65963 0.818552 0.839936
917 2 0.502393 0.845216 0.841226
922 2 0.745563 0.977573 0.846974
336 1 0.506904 0.0339514 0.849579
453 1 0.0702678 0.93865 0.865053
911 2 0.923671 0.855122 0.864162
885 2 0.776951 0.86599 0.87264
929 2 0.0653153 0.282902 0.930639
451 1 0.147542 0.116965 0.916056
996 2 0.0285635 0.178016 0.898681
970 2 0.301891 0.0922147 0.895666
995 2 0.251261 0.270161 0.935518
403 1 0.266447 0.256442 0.897133
474 1 0.38788 0.166854 0.916687
923 2 0.418903 0.0191034 0.926396
493 1 0.558085 0.255282 0.904051
866 2 0.449808 0.982199 0.887812
399 1 0.542332 0.0880977 0.9025
484 1 0.606787 0.00470004 0.929112
427 1 0.886066 0.141315 0.918568
450 1 0.691959 0.189089 0.924626
500 1 0.739935 0.0778603 0.949067
437 1 0.967802 0.0134932 0.941056
47 1 0.00189531 0.458065 0.917983