ITEM: TIMESTEP
16180
ITEM: NUMBER OF ATOMS
1000
ITEM: BOX BOUNDS pp pp pp
0.0000000000000000e+00 6.2996052494743662e+00
0.0000000000000000e+00 6.2996052494743662e+00
0.0000000000000000e+00 2.5198420997897465e+01
ITEM: ATOMS id type xs ys zs
581 2 0.993426 0.121079 0.0644582
471 1 0.0399829 0.0773479 0.0236512
51 1 0.106037 0.20192 0.036564
951 2 0.166715 0.0545032 0.0480928
903 2 0.218769 0.072653 0.985527
526 2 0.397841 0.12298 0.00931528
512 2 0.248891 0.153258 0.0196824
548 2 0.323182 0.0201427 0.043774
34 1 0.424228 0.209875 0.0430366
96 1 0.527923 0.0745785 0.0294813
518 2 0.710704 0.0312041 0.0363187
29 1 0.638743 0.126562 0.0102577
507 2 0.632476 0.159225 0.0477332
918 2 0.895722 0.0091863 0.0404239
71 1 0.948692 0.205908 0.0163338
973 2 0.777841 0.16146 0.0322981
510 2 0.115792 0.361011 0.0508581
927 2 0.0708095 0.335577 0.00676848
482 1 0.207861 0.456212 0.0207944
52 1 0.301494 0.305877 0.0516793
952 2 0.213545 0.30873 0.999531
511 2 0.364673 0.363686 0.014097
503 2 0.567116 0.455272 0.0280556
986 2 0.494904 0.304301 0.00495066
27 1 0.645067 0.301711 0.0326086
17 1 0.581401 0.302204 0.0648014
73 1 0.764108 0.408622 0.00998907
13 1 0.908873 0.402367 0.00237791
529 2 0.813358 0.525574 0.0353147
977 2 0.772659 0.357742 0.0480586
485 1 0.894953 0.438381 0.0651682
454 1 0.0862188 0.548484 0.00325044
85 1 0.105464 0.55395 0.0554083
523 2 0.135304 0.690859 0.02645
997 2 0.0959628 0.697118 0.989339
9 1 0.2568 0.61733 0.045238
63 1 0.372941 0.540242 0.0357403
48 1 0.290886 0.73992 0.0221161
947 2 0.432476 0.681868 0.0460765
978 2 0.412696 0.66604 0.00558281
552 2 0.494717 0.54654 0.0670106
79 1 0.587813 0.603542 0.0154728
15 1 0.651626 0.57142 0.0495011
487 1 0.00787619 0.455645 0.0325338
987 2 0.971488 0.635825 0.037131
520 2 0.769557 0.665721 0.0170562
49 1 0.831491 0.705197 0.05088
36 1 0.85857 0.798374 0.0133194
498 1 0.033005 0.937827 0.0460311
494 1 0.117986 0.945726 0.00875591
70 1 0.192041 0.840416 0.0325763
23 1 0.334647 0.853129 0.040649
12 1 0.447848 0.947125 0.0443864
455 1 0.427943 0.853432 0.0128165
979 2 0.30308 0.965517 0.0089198
33 1 0.547822 0.747274 0.015566
4 1 0.605825 0.931114 0.0333015
524 2 0.677668 0.731852 0.0452807
37 1 0.0391269 0.803725 0.0146032
525 2 0.798451 0.877443 0.0420852
495 1 0.766495 0.954527 0.000791436
488 1 0.954148 0.957858 0.00326238
560 2 0.129626 0.0295542 0.0839012
559 2 0.999901 0.0854816 0.111568
92 1 0.257288 0.163871 0.0578516
546 2 0.132412 0.206507 0.081222
589 2 0.095193 0.261109 0.118406
89 1 0.418261 0.224328 0.0833139
516 2 0.420946 0.0889113 0.0683693
599 2 0.278487 0.182747 0.09486
543 2 0.409734 0.0870996 0.111046
45 1 0.602833 0.0278796 0.063381
565 2 0.696304 0.186192 0.0929062
554 2 0.547701 0.135826 0.0872163
558 2 0.566925 0.299275 0.107909
528 2 0.856523 0.199797 0.0661783
982 2 0.763352 0.0672186 0.0725629
967 2 0.890583 0.054884 0.0915945
57 1 0.199243 0.362599 0.0828567
65 1 0.0371446 0.44965 0.0822662
527 2 0.449142 0.381185 0.0469145
561 2 0.528966 0.432442 0.0912459
78 1 0.356907 0.360287 0.0938942
477 1 0.660671 0.434215 0.0690552
42 1 0.719566 0.373335 0.102176
575 2 0.867125 0.327153 0.0928515
521 2 0.789502 0.515611 0.0886973
41 1 0.980532 0.29906 0.059557
77 1 0.915408 0.486197 0.108953
486 1 0.939229 0.218604 0.114775
7 1 0.181159 0.58497 0.0817666
985 2 0.091848 0.514855 0.112965
594 2 0.0229726 0.617674 0.0881762
28 1 0.296061 0.458886 0.0637963
139 1 0.245885 0.743418 0.0670781
514 2 0.349165 0.61441 0.0819901
11 1 0.252921 0.517237 0.111155
56 1 0.611873 0.554548 0.100379
533 2 0.512111 0.691992 0.0956392
86 1 0.664633 0.683402 0.0861273
64 1 0.681506 0.693012 0.125687
35 1 0.910531 0.583504 0.0656917
40 1 0.8687 0.64201 0.110443
590 2 0.753231 0.545611 0.125347
963 2 0.254209 0.701099 0.113025
555 2 0.219465 0.909642 0.0712022
38 1 0.138794 0.905916 0.103818
542 2 0.111269 0.776184 0.0831828
597 2 0.00774202 0.931077 0.0857804
547 2 0.427812 0.795928 0.124727
537 2 0.395479 0.798059 0.0768884
513 2 0.27238 0.0249279 0.0924037
95 1 0.470396 0.961159 0.0849297
545 2 0.530879 0.833441 0.0655431
468 1 0.608322 0.981448 0.102831
998 2 0.58803 0.836826 0.107155
21 1 0.669501 0.900961 0.0742333
532 2 0.984334 0.808449 0.060886
98 1 0.965146 0.794343 0.102531
598 2 0.78344 0.928729 0.106244
534 2 0.794091 0.772068 0.0906018
39 1 0.864743 0.894876 0.0749073
577 2 0.196005 0.100101 0.123916
539 2 0.992263 0.146749 0.14889
54 1 0.151681 0.0708615 0.175617
638 2 0.17098 0.264596 0.153696
105 1 0.437487 0.21538 0.140528
68 1 0.450924 0.0530256 0.152982
112 1 0.290981 0.151225 0.151137
72 1 0.301872 0.997852 0.134613
59 1 0.561811 0.130133 0.127025
541 2 0.72839 0.0584901 0.112337
99 1 0.57038 0.265065 0.145144
566 2 0.772211 0.217123 0.125436
550 2 0.869923 0.0653448 0.133664
93 1 0.861878 0.23067 0.156033
118 1 0.867217 0.0170802 0.169218
544 2 0.981379 0.361686 0.128552
957 2 0.0235824 0.29549 0.165165
82 1 0.256215 0.413631 0.137551
636 2 0.0657905 0.516257 0.153895
76 1 0.297899 0.296493 0.124157
671 2 0.442214 0.27274 0.179026
62 1 0.457464 0.373053 0.125006
557 2 0.520122 0.40415 0.162511
576 2 0.632871 0.407155 0.131211
100 1 0.69238 0.45103 0.170005
90 1 0.735483 0.307377 0.157006
60 1 0.843945 0.372095 0.134755
80 1 0.854976 0.516546 0.167347
125 1 0.211155 0.56139 0.152608
107 1 0.0738806 0.662699 0.123228
553 2 0.108985 0.771761 0.165879
97 1 0.239548 0.729477 0.150546
538 2 0.462532 0.54069 0.111883
551 2 0.363135 0.632894 0.134722
595 2 0.402153 0.470625 0.148278
519 2 0.532183 0.695801 0.135893
50 1 0.621374 0.558441 0.147071
116 1 0.569575 0.735712 0.168969
981 2 0.961482 0.579906 0.137078
83 1 0.800434 0.647339 0.150007
517 2 0.846547 0.774757 0.16232
642 2 0.95654 0.61385 0.177283
88 1 0.0884464 0.993747 0.136708
578 2 0.0398935 0.922318 0.173778
53 1 0.0852738 0.826585 0.130204
141 1 0.172882 0.905285 0.160218
509 2 0.308765 0.867841 0.104852
570 2 0.409097 0.828357 0.162229
587 2 0.45888 0.935188 0.126614
502 2 0.603832 0.968756 0.138239
14 1 0.663936 0.818454 0.145421
108 1 0.752567 0.934169 0.160774
104 1 0.96677 0.727659 0.143063
44 1 0.937729 0.914467 0.128676
10 1 0.808369 0.807864 0.128451
583 2 0.989924 0.0738049 0.193973
127 1 0.202563 0.0345402 0.211616
580 2 0.972223 0.226945 0.205448
569 2 0.142579 0.196687 0.201092
667 2 0.0626043 0.106435 0.230415
536 2 0.478025 0.0860905 0.223573
74 1 0.388209 0.0874302 0.191864
971 2 0.608534 0.0291236 0.174371
530 2 0.700406 0.199549 0.200691
117 1 0.7263 0.104671 0.15082
626 2 0.542532 0.163068 0.185397
109 1 0.834553 0.131652 0.191495
102 1 0.79912 0.989607 0.203503
601 2 0.946 0.192553 0.250691
628 2 0.906472 0.0327165 0.230721
535 2 0.177258 0.390285 0.170079
585 2 0.179869 0.40645 0.207833
91 1 0.308681 0.44542 0.177798
611 2 0.327581 0.353152 0.217536
101 1 0.265008 0.245651 0.183693
609 2 0.43215 0.425115 0.197416
586 2 0.458345 0.265053 0.216245
55 1 0.578662 0.377209 0.226408
84 1 0.614221 0.52141 0.201324
607 2 0.617982 0.321561 0.182543
670 2 0.75711 0.386283 0.205988
1 1 0.991219 0.422142 0.187175
157 1 0.855001 0.34927 0.177744
564 2 0.812189 0.551932 0.203562
582 2 0.981761 0.370104 0.229782
87 1 0.105712 0.526937 0.190593
169 1 0.0698356 0.656203 0.208961
166 1 0.131711 0.513127 0.231678
144 1 0.182561 0.662958 0.181774
606 2 0.247456 0.549487 0.198817
593 2 0.355682 0.647117 0.17098
665 2 0.474118 0.554745 0.215833
115 1 0.378457 0.65704 0.208342
604 2 0.696721 0.624021 0.180518
556 2 0.50819 0.593458 0.168752
150 1 0.755348 0.632103 0.229817
647 2 0.5928 0.666639 0.211333
622 2 0.99054 0.536416 0.221026
94 1 0.959331 0.712787 0.234547
111 1 0.847622 0.714678 0.197738
122 1 0.163447 0.887351 0.20085
591 2 0.23408 0.749505 0.222208
563 2 0.0984744 0.8094 0.239154
562 2 0.415653 0.945002 0.205647
635 2 0.406793 0.846948 0.234739
120 1 0.296046 0.963268 0.179953
613 2 0.26354 0.913228 0.227416
66 1 0.306257 0.822625 0.191493
149 1 0.466435 0.779102 0.195596
540 2 0.582486 0.877163 0.192032
572 2 0.638103 0.0299948 0.213958
113 1 0.710002 0.804669 0.19005
632 2 0.0081593 0.791787 0.197531
615 2 0.888116 0.877049 0.185165
596 2 0.98242 0.894657 0.225517
648 2 0.819975 0.838081 0.225845
128 1 0.180172 0.0342276 0.273668
652 2 0.0951953 0.180165 0.268105
603 2 0.335064 0.0639432 0.23593
124 1 0.331558 0.0917044 0.279961
138 1 0.357784 0.247336 0.25597
140 1 0.201028 0.140029 0.239866
579 2 0.468445 0.0357164 0.265314
110 1 0.629855 0.0390314 0.250174
151 1 0.478472 0.182491 0.284824
129 1 0.699746 0.182085 0.266203
623 2 0.596621 0.202833 0.236682
679 2 0.63045 0.0900143 0.293633
26 1 0.78222 0.126323 0.225072
176 1 0.985463 0.0628623 0.269868
630 2 0.814481 0.0860483 0.263465
610 2 0.0900662 0.268969 0.232161
618 2 0.206236 0.334115 0.265962
130 1 0.0191509 0.320433 0.265252
608 2 0.43118 0.40626 0.239321
612 2 0.350781 0.402531 0.271229
592 2 0.697265 0.385589 0.269553
653 2 0.528899 0.307556 0.263451
161 1 0.758474 0.268937 0.240467
621 2 0.704414 0.47952 0.238444
637 2 0.553188 0.483931 0.278395
135 1 0.851845 0.275151 0.274286
567 2 0.840172 0.410945 0.25045
641 2 0.95882 0.44408 0.276548
634 2 0.18553 0.524194 0.265816
247 1 0.163225 0.720643 0.289942
121 1 0.158354 0.657372 0.24878
568 2 0.0326094 0.580866 0.27481
651 2 0.305355 0.538018 0.236354
617 2 0.434386 0.553826 0.258114
697 2 0.324777 0.580852 0.28727
531 2 0.569011 0.577726 0.243058
675 2 0.69138 0.583538 0.275364
164 1 0.508268 0.747853 0.248378
619 2 0.668712 0.752282 0.254032
148 1 0.509028 0.669431 0.278916
152 1 0.879443 0.588314 0.246763
81 1 0.823861 0.735743 0.252616
691 2 0.819986 0.519769 0.276206
142 1 0.149538 0.852539 0.273975
616 2 0.0877727 0.966804 0.249434
614 2 0.00855045 0.798215 0.270809
177 1 0.0374511 0.898994 0.298494
69 1 0.530044 0.92263 0.243149
134 1 0.321988 0.925343 0.267535
672 2 0.35263 0.713182 0.260318
103 1 0.462097 0.850701 0.28197
131 1 0.648627 0.830831 0.223994
147 1 0.60112 0.929076 0.284264
195 1 0.487338 0.771183 0.310956
605 2 0.728313 0.923366 0.253378
625 2 0.933019 0.911925 0.262067
655 2 0.737601 0.858962 0.286775
119 1 0.136559 0.222602 0.299799
680 2 0.087869 0.0723411 0.303193
662 2 0.981715 0.0216844 0.325864
690 2 0.0982566 0.128493 0.343756
185 1 0.258032 0.061699 0.329585
201 1 0.389655 0.133045 0.321395
183 1 0.506113 0.0496425 0.310427
190 1 0.650735 0.186638 0.324324
686 2 0.511131 0.236705 0.335381
238 1 0.604937 0.0370112 0.339918
172 1 0.842853 0.0414714 0.299929
649 2 0.963984 0.159646 0.301753
189 1 0.766974 0.087812 0.334246
123 1 0.806038 0.196501 0.3022
180 1 0.144144 0.459129 0.33284
145 1 0.0993886 0.433483 0.291595
179 1 0.199841 0.314502 0.334771
639 2 0.00770687 0.47173 0.359079
126 1 0.398341 0.319617 0.320995
640 2 0.289832 0.21583 0.297052
656 2 0.31431 0.382376 0.360924
137 1 0.249095 0.392194 0.30657
657 2 0.429007 0.473444 0.336427
627 2 0.619368 0.271315 0.295028
67 1 0.545169 0.394685 0.310279
699 2 0.758643 0.345913 0.327624
643 2 0.500599 0.387432 0.361295
170 1 0.687042 0.461697 0.351158
160 1 0.917651 0.355921 0.309827
154 1 0.75015 0.465023 0.306814
158 1 0.847986 0.470207 0.34738
133 1 0.932022 0.251623 0.33463
664 2 0.067909 0.328054 0.319784
620 2 0.10608 0.577881 0.310393
629 2 0.97761 0.500158 0.316153
178 1 0.0373995 0.723771 0.31135
114 1 0.430366 0.505983 0.302091
168 1 0.424483 0.639913 0.318044
661 2 0.292028 0.531862 0.338754
720 2 0.245901 0.672361 0.316716
650 2 0.599976 0.589912 0.3096
146 1 0.596198 0.724883 0.350729
155 1 0.643938 0.728522 0.29685
198 1 0.695645 0.635983 0.335059
231 1 0.885957 0.721042 0.291969
700 2 0.935948 0.640363 0.348446
175 1 0.826156 0.601763 0.318807
682 2 0.978586 0.860509 0.329513
159 1 0.13295 0.976748 0.329867
153 1 0.150524 0.830013 0.321729
221 1 0.27665 0.862405 0.34029
624 2 0.305768 0.784609 0.296368
658 2 0.250271 0.946504 0.303774
163 1 0.449963 0.794306 0.349751
696 2 0.420023 0.897769 0.319531
719 2 0.701001 0.951574 0.315851
724 2 0.57657 0.859705 0.327498
588 2 0.887739 0.884998 0.295739
673 2 0.78085 0.790381 0.321758
202 1 0.841885 0.966819 0.341892
181 1 0.10084 0.181846 0.386013
660 2 0.0856469 0.0336648 0.375205
236 1 0.243761 0.0517254 0.390464
687 2 0.309332 0.148004 0.359541
602 2 0.483382 0.120659 0.35938
136 1 0.384508 0.127171 0.398576
187 1 0.553598 0.205163 0.391732
698 2 0.65033 0.0817132 0.372481
633 2 0.736948 0.996324 0.397184
716 2 0.757638 0.168936 0.369486
749 2 0.92176 0.0892649 0.352354
165 1 0.915193 0.197926 0.379218
715 2 0.985333 0.09364 0.401943
677 2 0.231231 0.270595 0.382946
584 2 0.187069 0.421684 0.376479
106 1 0.0877183 0.298502 0.361905
156 1 0.0683991 0.489123 0.396885
211 1 0.145533 0.355524 0.409377
678 2 0.433157 0.253478 0.368355
188 1 0.372632 0.344676 0.39933
143 1 0.384575 0.524763 0.375336
669 2 0.540816 0.375451 0.400316
692 2 0.626539 0.274244 0.36217
237 1 0.663996 0.475686 0.394533
194 1 0.850488 0.317169 0.361806
710 2 0.943742 0.391967 0.389236
709 2 0.802353 0.295655 0.409444
688 2 0.237133 0.572929 0.382487
196 1 0.107349 0.598189 0.350742
199 1 0.287419 0.709592 0.41425
200 1 0.0807124 0.659473 0.390757
207 1 0.339193 0.68812 0.347488
220 1 0.363268 0.67548 0.384606
645 2 0.502457 0.585632 0.357262
171 1 0.51412 0.539943 0.400675
631 2 0.658449 0.600391 0.370961
725 2 0.532715 0.671099 0.387073
209 1 0.661481 0.76059 0.384386
779 2 0.632468 0.632079 0.421765
644 2 0.806635 0.471278 0.381816
191 1 0.933711 0.559901 0.383483
674 2 0.79847 0.642902 0.365325
666 2 0.76912 0.673778 0.403959
225 1 0.0501199 0.756712 0.366345
212 1 0.150954 0.891717 0.386251
205 1 0.0938443 0.768159 0.413811
712 2 0.22426 0.751024 0.368702
197 1 0.327292 0.928857 0.372427
706 2 0.47662 0.968653 0.360167
646 2 0.451316 0.96084 0.398367
741 2 0.418992 0.818439 0.384044
703 2 0.707759 0.91061 0.355134
717 2 0.602545 0.903749 0.390893
173 1 0.531096 0.805602 0.411377
676 2 0.853754 0.773004 0.354236
705 2 0.992287 0.913983 0.365642
654 2 0.902262 0.738345 0.387373
689 2 0.873967 0.0241127 0.383813
224 1 0.800166 0.865522 0.388985
213 1 0.264091 0.00490911 0.470817
184 1 0.0933825 0.208034 0.430348
791 2 0.151688 0.0938313 0.457877
182 1 0.376342 0.016604 0.435864
321 1 0.238897 0.146276 0.424537
162 1 0.520475 0.149123 0.427521
792 2 0.322665 0.134115 0.457495
193 1 0.709381 0.18426 0.430604
233 1 0.58634 0.168479 0.461815
718 2 0.778069 0.140662 0.462425
702 2 0.596634 0.00430445 0.417034
659 2 0.810727 0.0868724 0.422471
240 1 0.961322 0.257078 0.411001
772 2 0.950649 0.0403808 0.439352
242 1 0.115863 0.434291 0.44483
265 1 0.198128 0.260361 0.452164
767 2 0.978599 0.286601 0.455061
167 1 0.437646 0.401029 0.443173
736 2 0.279404 0.3929 0.431076
713 2 0.375462 0.264384 0.432923
695 2 0.314893 0.45685 0.461617
218 1 0.523226 0.29204 0.468572
132 1 0.573339 0.463801 0.432131
234 1 0.690521 0.283594 0.466971
216 1 0.746234 0.427009 0.424855
714 2 0.633787 0.316255 0.42737
685 2 0.700992 0.464797 0.465719
239 1 0.827637 0.299747 0.450324
217 1 0.87643 0.498887 0.430957
261 1 0.982951 0.384942 0.426394
275 1 0.874573 0.487066 0.469954
203 1 0.140549 0.575173 0.417806
186 1 0.0273392 0.568613 0.457729
222 1 0.11112 0.701043 0.446559
223 1 0.461534 0.650443 0.419129
296 1 0.335728 0.531844 0.415745
745 2 0.255045 0.58103 0.443054
707 2 0.427771 0.5515 0.449608
255 1 0.574687 0.60386 0.458801
206 1 0.685467 0.734555 0.451937
737 2 0.930476 0.641474 0.422159
723 2 0.77131 0.61564 0.440601
693 2 0.90024 0.695828 0.461176
681 2 0.0935574 0.992837 0.415297
257 1 0.241452 0.962854 0.428295
284 1 0.0865525 0.920575 0.448771
746 2 0.227573 0.796397 0.444473
174 1 0.352522 0.730878 0.457483
708 2 0.37278 0.825009 0.424954
733 2 0.348998 0.899626 0.456796
229 1 0.666698 0.883518 0.428629
232 1 0.497984 0.918111 0.440265
727 2 0.499374 0.741615 0.446777
683 2 0.639918 0.0205381 0.45348
246 1 0.812695 0.785177 0.436555
251 1 0.97035 0.900558 0.403962
684 2 0.816952 0.938368 0.433196
755 2 0.971379 0.823472 0.439511
774 2 0.809988 0.804676 0.478102
763 2 0.0985566 0.159984 0.490964
290 1 0.140254 0.0833207 0.522879
272 1 0.278863 0.213791 0.493573
711 2 0.00353265 0.0149206 0.473603
781 2 0.149712 0.241848 0.517985
208 1 0.477719 0.978011 0.478383
235 1 0.487197 0.0625583 0.522132
738 2 0.467068 0.126144 0.48349
287 1 0.337347 0.0620919 0.499801
742 2 0.409581 0.229763 0.517146
264 1 0.646119 0.0810114 0.494233
289 1 0.77279 0.997331 0.511403
219 1 0.591961 0.208972 0.513063
734 2 0.743894 0.209222 0.502502
804 2 0.914977 0.0623276 0.50755
215 1 0.929625 0.155057 0.478234
729 2 0.00656047 0.1721 0.519129
759 2 0.858255 0.212936 0.53151
732 2 0.167791 0.348314 0.484716
244 1 0.0305538 0.466203 0.499979
192 1 0.985451 0.543326 0.532419
315 1 0.14762 0.417172 0.52279
259 1 0.308178 0.357937 0.522669
269 1 0.376186 0.307236 0.469546
285 1 0.503643 0.35493 0.503843
204 1 0.508119 0.480677 0.480589
721 2 0.675518 0.408616 0.50245
744 2 0.72285 0.451969 0.539587
739 2 0.870283 0.307141 0.486272
740 2 0.023815 0.330512 0.491968
260 1 0.903204 0.385218 0.520363
278 1 0.169201 0.636617 0.516933
762 2 0.231948 0.676479 0.476848
785 2 0.14925 0.536655 0.479879
701 2 0.047482 0.624826 0.497252
766 2 0.360989 0.610262 0.489594
249 1 0.460661 0.595093 0.51686
752 2 0.328799 0.729791 0.508136
258 1 0.259 0.486706 0.504547
227 1 0.501398 0.673637 0.487212
300 1 0.632213 0.575237 0.495711
314 1 0.66841 0.719647 0.486747
722 2 0.779264 0.623691 0.477629
754 2 0.794434 0.728426 0.517748
230 1 0.843827 0.554569 0.514796
663 2 0.910824 0.692803 0.49841
747 2 0.151328 0.949077 0.48918
757 2 0.0276496 0.947151 0.523176
735 2 0.248811 0.82899 0.483485
726 2 0.0872143 0.755814 0.482931
793 2 0.191156 0.784293 0.515677
770 2 0.0121673 0.781121 0.515986
214 1 0.46183 0.824171 0.479508
210 1 0.365697 0.897551 0.505306
731 2 0.488745 0.772135 0.519835
309 1 0.592548 0.967551 0.514739
753 2 0.597908 0.835048 0.466771
282 1 0.700626 0.929927 0.477691
279 1 0.64766 0.834073 0.522832
704 2 0.829846 0.0038901 0.47609
250 1 0.969946 0.874652 0.479534
668 2 0.869469 0.882624 0.505292
799 2 0.187766 0.0697741 0.558938
277 1 0.00633435 0.0905185 0.549649
302 1 0.121256 0.248774 0.562873
310 1 0.336126 0.0824251 0.54186
263 1 0.489146 0.14247 0.557836
798 2 0.437217 0.959768 0.547693
728 2 0.256579 0.243721 0.543547
764 2 0.256682 0.215126 0.581096
778 2 0.604182 0.0426182 0.550483
348 1 0.535028 0.0267942 0.583601
809 2 0.620891 0.191763 0.569076
824 2 0.731792 0.996494 0.57428
294 1 0.927338 0.250962 0.565278
308 1 0.83524 0.0691565 0.548908
320 1 0.774073 0.243139 0.563339
286 1 0.929462 0.0922139 0.586597
295 1 0.0119718 0.306018 0.536177
298 1 0.0972519 0.404958 0.564513
357 1 0.266515 0.375667 0.569898
366 1 0.395221 0.303615 0.559164
228 1 0.36867 0.469856 0.549649
270 1 0.529099 0.294367 0.539727
274 1 0.634591 0.346323 0.567284
761 2 0.692592 0.304316 0.532369
254 1 0.466855 0.45629 0.575428
694 2 0.515505 0.472147 0.532319
765 2 0.840428 0.376424 0.556209
811 2 0.205858 0.510589 0.552529
730 2 0.0657571 0.645182 0.550037
283 1 0.0961535 0.537326 0.578571
748 2 0.313693 0.612049 0.53965
266 1 0.472299 0.77902 0.560904
267 1 0.276038 0.572998 0.586675
775 2 0.212089 0.6673 0.554602
322 1 0.446176 0.610232 0.557899
288 1 0.355696 0.696898 0.582829
273 1 0.664616 0.752794 0.566647
823 2 0.584302 0.677916 0.536441
245 1 0.742096 0.609549 0.542936
350 1 0.533475 0.677396 0.58428
750 2 0.625547 0.52315 0.566316
262 1 0.897557 0.652934 0.540916
790 2 0.943966 0.570971 0.575674
795 2 0.792355 0.51661 0.576541
306 1 0.809022 0.70066 0.570053
243 1 0.0435856 0.932965 0.56436
256 1 0.0886346 0.790408 0.548678
751 2 0.352774 0.823644 0.539518
780 2 0.206939 0.938611 0.537371
832 2 0.353004 0.993843 0.576928
777 2 0.246071 0.831659 0.565915
372 1 0.582009 0.898927 0.560213
783 2 0.772275 0.872099 0.539774
789 2 0.897274 0.947523 0.540459
865 2 0.925836 0.811733 0.552928
291 1 0.896916 0.916437 0.578203
281 1 0.0889255 0.120214 0.579925
802 2 0.18101 0.209251 0.620704
871 2 0.0175401 0.136318 0.623332
788 2 0.239381 0.0702324 0.596475
800 2 0.122274 0.0275015 0.624493
319 1 0.433306 0.133647 0.604415
803 2 0.314897 0.116538 0.627046
376 1 0.465643 0.223847 0.639381
326 1 0.641796 0.97101 0.624877
758 2 0.580193 0.109647 0.613319
304 1 0.703424 0.146375 0.634573
268 1 0.737818 0.135683 0.594176
817 2 0.867761 0.0937505 0.62954
349 1 0.026382 0.277737 0.59943
782 2 0.15661 0.329298 0.594508
891 2 0.12431 0.34647 0.638316
341 1 0.286101 0.337377 0.639288
368 1 0.207569 0.464404 0.605984
299 1 0.346198 0.414592 0.600731
292 1 0.338943 0.271844 0.604386
794 2 0.492643 0.263336 0.588308
311 1 0.624997 0.272404 0.611949
769 2 0.607231 0.46408 0.605325
328 1 0.489066 0.371349 0.625495
845 2 0.773566 0.322486 0.640542
776 2 0.917861 0.397954 0.590634
331 1 0.864858 0.251677 0.602462
313 1 0.754526 0.349186 0.597116
271 1 0.899561 0.399108 0.626178
843 2 0.0122592 0.674733 0.593391
825 2 0.0193045 0.487031 0.609689
821 2 0.150464 0.515802 0.643341
850 2 0.139272 0.717525 0.626838
796 2 0.166905 0.730738 0.588483
860 2 0.336601 0.516797 0.627093
743 2 0.349318 0.667589 0.622562
241 1 0.439929 0.589947 0.600173
293 1 0.527496 0.559141 0.629535
226 1 0.57173 0.710687 0.619484
813 2 0.76328 0.50249 0.62238
826 2 0.670657 0.612124 0.596552
840 2 0.752062 0.698317 0.633407
797 2 0.861216 0.632659 0.607073
829 2 0.987493 0.597304 0.639593
280 1 0.165271 0.922947 0.591543
822 2 0.0241454 0.824176 0.593479
760 2 0.23106 0.818159 0.616139
332 1 0.0466545 0.858378 0.633456
343 1 0.388033 0.834104 0.612141
818 2 0.310121 0.961643 0.616818
374 1 0.507349 0.981582 0.616896
819 2 0.463462 0.841378 0.644474
325 1 0.523584 0.842065 0.59304
297 1 0.702279 0.851639 0.593118
324 1 0.60788 0.785157 0.652925
849 2 0.714944 0.844156 0.629666
784 2 0.967841 0.981894 0.610248
301 1 0.819821 0.971459 0.60583
808 2 0.856134 0.796706 0.603233
305 1 0.909142 0.933247 0.64664
864 2 0.938388 0.755658 0.6373
416 1 0.203969 0.138008 0.695163
346 1 0.222902 0.0311063 0.654369
863 2 0.121542 0.150224 0.657299
361 1 0.00267819 0.0335823 0.701377
787 2 0.325123 0.222577 0.662899
874 2 0.4006 0.0253287 0.651041
316 1 0.356403 0.0241891 0.687268
812 2 0.509453 0.215615 0.677289
333 1 0.485973 0.0699363 0.699363
342 1 0.647842 0.0169787 0.706204
353 1 0.720572 0.943658 0.655655
276 1 0.575815 0.0982272 0.663099
335 1 0.705504 0.180221 0.688901
807 2 0.956486 0.0821035 0.66587
827 2 0.827942 0.19587 0.659041
365 1 0.827818 0.0107821 0.683199
370 1 0.887805 0.172818 0.691651
771 2 0.193503 0.27345 0.678753
861 2 0.0399827 0.243065 0.682674
386 1 0.129696 0.442038 0.67739
862 2 0.445246 0.391772 0.662278
834 2 0.486282 0.32885 0.708243
801 2 0.29912 0.390694 0.693187
364 1 0.403725 0.504272 0.705998
248 1 0.626342 0.292852 0.658523
859 2 0.651899 0.325283 0.696137
340 1 0.642721 0.456739 0.643126
303 1 0.853541 0.440307 0.673606
345 1 0.950147 0.264849 0.642144
387 1 0.971504 0.367189 0.695182
816 2 0.785417 0.309238 0.680873
838 2 0.00350784 0.411303 0.654092
814 2 0.27396 0.549402 0.671136
842 2 0.251599 0.69332 0.65358
836 2 0.118992 0.645236 0.668026
253 1 0.434572 0.550671 0.660697
872 2 0.524667 0.62949 0.69772
815 2 0.486164 0.696287 0.650918
831 2 0.360082 0.672411 0.68193
768 2 0.560691 0.464809 0.685469
773 2 0.711908 0.557335 0.682838
847 2 0.632984 0.621638 0.650849
873 2 0.721639 0.713107 0.676966
355 1 0.962979 0.549362 0.683012
334 1 0.833876 0.607985 0.660197
379 1 0.894814 0.716855 0.682804
867 2 0.164653 0.86802 0.657421
252 1 0.0299864 0.779812 0.669583
810 2 0.0486944 0.961314 0.66738
347 1 0.269044 0.77608 0.68828
869 2 0.224734 0.953698 0.690819
756 2 0.314266 0.844805 0.649802
317 1 0.380662 0.873826 0.688575
854 2 0.698496 0.876242 0.694532
327 1 0.548444 0.924057 0.673565
358 1 0.822286 0.799496 0.658372
846 2 0.923872 0.875628 0.686608
389 1 0.793336 0.77452 0.71247
359 1 0.0503626 0.221848 0.720371
930 2 0.135109 0.0452284 0.720993
921 2 0.0957375 0.0812584 0.755752
900 2 0.369316 0.207181 0.697403
323 1 0.35267 0.103315 0.728002
307 1 0.477987 0.0938897 0.751712
880 2 0.214933 0.182061 0.747069
390 1 0.735125 0.273482 0.726733
837 2 0.68529 0.115291 0.747474
449 1 0.691734 0.224355 0.771677
443 1 0.561696 0.152588 0.725837
882 2 0.745897 0.969882 0.754683
830 2 0.929945 0.037107 0.738876
853 2 0.805635 0.0955739 0.718125
385 1 0.845642 0.161977 0.748746
338 1 0.133332 0.366567 0.709776
835 2 0.237956 0.409847 0.763065
848 2 0.0896931 0.440475 0.741069
990 2 0.127354 0.287312 0.764664
851 2 0.281242 0.297813 0.731356
373 1 0.411135 0.243936 0.74008
858 2 0.388251 0.47006 0.748653
901 2 0.521092 0.442701 0.728002
375 1 0.602776 0.293628 0.744239
422 1 0.734682 0.420236 0.746526
839 2 0.835295 0.419731 0.713941
855 2 0.971214 0.486294 0.720461
410 1 0.915085 0.300653 0.72924
460 1 0.822734 0.307546 0.76234
875 2 0.885419 0.49281 0.761321
424 1 0.172031 0.569183 0.697508
473 1 0.0495938 0.640428 0.70982
881 2 0.210056 0.652061 0.726473
805 2 0.126971 0.585424 0.762387
896 2 0.229932 0.503023 0.732159
362 1 0.357034 0.615638 0.736367
844 2 0.664427 0.470662 0.715698
360 1 0.569722 0.592072 0.736601
397 1 0.720863 0.636539 0.720231
430 1 0.651372 0.740321 0.749398
935 2 0.676542 0.568992 0.759246
423 1 0.872464 0.615839 0.713672
898 2 0.812806 0.62483 0.748971
384 1 0.992644 0.584627 0.747579
377 1 0.0324573 0.930912 0.738547
879 2 0.241823 0.780676 0.758741
852 2 0.201318 0.972614 0.749605
398 1 0.115591 0.836995 0.705312
420 1 0.0791493 0.711371 0.74348
339 1 0.536673 0.902373 0.716314
318 1 0.375744 0.923371 0.746182
820 2 0.272764 0.857272 0.721207
396 1 0.409051 0.741093 0.720387
897 2 0.505209 0.833141 0.748214
833 2 0.381837 0.760259 0.755501
909 2 0.567295 0.785333 0.700372
886 2 0.674332 0.88216 0.729725
337 1 0.576963 0.96829 0.754203
330 1 0.853875 0.91055 0.720638
892 2 0.954349 0.800506 0.717492
870 2 0.791067 0.782078 0.750525
413 1 0.131428 0.16761 0.791763
363 1 0.28944 0.101583 0.772217
412 1 0.406254 0.0916787 0.800876
928 2 0.256007 0.16705 0.808705
354 1 0.585796 0.0861019 0.781924
884 2 0.757282 0.174815 0.803829
429 1 0.549024 0.210995 0.81664
462 1 0.507666 0.21482 0.778596
895 2 0.986131 0.140547 0.777437
329 1 0.87104 0.272058 0.797189
356 1 0.869558 0.068841 0.793243
457 1 0.960463 0.180441 0.819808
876 2 0.0693727 0.310704 0.803582
441 1 0.114506 0.423965 0.78808
476 1 0.237988 0.301757 0.79409
408 1 0.354936 0.261732 0.778617
828 2 0.494819 0.390382 0.762921
984 2 0.365938 0.267108 0.82557
380 1 0.517049 0.359739 0.801654
312 1 0.34766 0.45078 0.788121
417 1 0.669092 0.327863 0.801253
889 2 0.621788 0.441454 0.779641
414 1 0.840369 0.401968 0.798073
893 2 0.978017 0.364081 0.771142
806 2 0.798409 0.312568 0.830859
344 1 0.0559758 0.704821 0.786203
912 2 0.155876 0.561673 0.802159
877 2 0.25529 0.727051 0.79749
841 2 0.279473 0.617015 0.767284
857 2 0.390225 0.624188 0.799596
400 1 0.465702 0.761305 0.791882
367 1 0.499485 0.672108 0.762151
910 2 0.500987 0.532756 0.780062
391 1 0.637105 0.669457 0.786884
915 2 0.525313 0.664478 0.819294
405 1 0.594082 0.516838 0.815312
972 2 0.998077 0.521035 0.7857
351 1 0.972986 0.579768 0.818475
381 1 0.774009 0.535891 0.788256
404 1 0.790911 0.723044 0.790515
411 1 0.935565 0.724522 0.767903
856 2 0.82382 0.61574 0.820085
933 2 0.736147 0.491831 0.829892
942 2 0.0925708 0.88523 0.777561
425 1 0.0369716 0.00434325 0.80581
916 2 0.180853 0.989157 0.789834
406 1 0.0819885 0.790314 0.819303
924 2 0.456642 0.950557 0.781872
941 2 0.307692 0.887778 0.785204
407 1 0.226408 0.911664 0.820448
383 1 0.405476 0.880735 0.819567
925 2 0.550857 0.925036 0.813574
382 1 0.671097 0.838933 0.783868
421 1 0.734035 0.974377 0.800508
352 1 0.971925 0.973333 0.770841
899 2 0.842666 0.876597 0.775683
392 1 0.964484 0.825034 0.798466
497 1 0.861621 0.899766 0.817789
954 2 0.174955 0.0534324 0.827727
956 2 0.17961 0.13337 0.859567
483 1 0.0323372 0.0696948 0.845511
428 1 0.0393728 0.0967038 0.883698
786 2 0.442677 0.11564 0.838697
452 1 0.342403 0.00527397 0.833739
463 1 0.375471 0.164207 0.87863
369 1 0.644051 0.0843072 0.821586
481 1 0.667953 0.248338 0.837919
868 2 0.556829 0.181509 0.860672
964 2 0.831079 0.173533 0.842315
976 2 0.732644 0.068044 0.865215
435 1 0.906533 0.110978 0.871467
953 2 0.762604 0.252433 0.873528
30 1 0.870359 0.993118 0.847154
393 1 0.07089 0.468281 0.827269
968 2 0.0914207 0.219064 0.843429
426 1 0.0368896 0.359555 0.855854
388 1 0.240053 0.400045 0.827151
418 1 0.189661 0.478929 0.864197
378 1 0.425385 0.462373 0.825412
434 1 0.437436 0.285393 0.855343
934 2 0.28033 0.309494 0.857259
501 2 0.332826 0.454915 0.871912
883 2 0.613618 0.390897 0.837732
949 2 0.620502 0.330907 0.872166
440 1 0.503656 0.472589 0.864393
955 2 0.754128 0.42656 0.868166
431 1 0.895301 0.308075 0.859448
966 2 0.922655 0.44153 0.837687
371 1 0.167848 0.651424 0.830588
905 2 0.0431932 0.553821 0.855301
461 1 0.112377 0.703881 0.878934
932 2 0.290002 0.565706 0.825934
878 2 0.280067 0.653207 0.857904
445 1 0.419129 0.605838 0.854703
913 2 0.377087 0.722341 0.829474
919 2 0.695292 0.631726 0.839652
975 2 0.624668 0.561068 0.874037
939 2 0.51151 0.642818 0.883015
944 2 0.975604 0.724033 0.84023
394 1 0.818629 0.747104 0.843817
395 1 0.87092 0.600904 0.85464
890 2 0.194356 0.82697 0.853215
438 1 0.121822 0.886269 0.880983
894 2 0.230431 0.965331 0.855456
940 2 0.394307 0.73233 0.888015
937 2 0.570166 0.832701 0.895911
22 1 0.371776 0.832659 0.856872
401 1 0.44753 0.937943 0.88099
920 2 0.656402 0.794852 0.824046
887 2 0.664937 0.755502 0.864271
917 2 0.511437 0.814063 0.848806
922 2 0.724076 0.920382 0.844973
336 1 0.592883 0.986196 0.848119
453 1 0.04274 0.924008 0.844559
911 2 0.972698 0.809309 0.87704
885 2 0.808428 0.869331 0.880336
929 2 0.120699 0.207224 0.929163
451 1 0.0716154 0.0475659 0.917868
996 2 0.0436712 0.241595 0.89438
970 2 0.251456 0.0451665 0.885918
995 2 0.264931 0.151983 0.931432
403 1 0.299052 0.282196 0.901511
474 1 0.446124 0.181803 0.923694
923 2 0.386153 0.046219 0.911169
493 1 0.566317 0.254118 0.904282
866 2 0.498773 0.0765142 0.889187
399 1 0.641141 0.0947369 0.902039
484 1 0.619552 0.926906 0.930487
427 1 0.932106 0.124934 0.920852
450 1 0.767406 0.183271 0.908278
500 1 0.777789 0.0819619 0.937509
437 1 0.894891 0.983137 0.952965
47 1 0.047645 0.356167 0.918358