ITEM: TIMESTEP
13610
ITEM: NUMBER OF ATOMS
1000
ITEM: BOX BOUNDS pp pp pp
0.0000000000000000e+00 6.2996052494743662e+00
0.0000000000000000e+00 6.2996052494743662e+00
0.0000000000000000e+00 2.5198420997897465e+01
ITEM: ATOMS id type xs ys zs
13 1 0.0809903 0.25115 0.0303885
918 2 0.0572848 0.000666667 0.0269047
28 1 0.321328 0.244905 0.0196291
951 2 0.114233 0.13608 0.00128625
8 1 0.343041 0.23134 0.971979
571 2 0.444031 0.176297 0.000510949
12 1 0.459691 0.987045 0.0250074
3 1 0.301239 0.0947183 0.998521
526 2 0.382222 0.125034 0.033347
17 1 0.738834 0.0893422 0.0567011
29 1 0.574511 0.0963894 0.0147764
986 2 0.730828 0.0721434 0.0111338
46 1 0.977142 0.0673298 0.00207219
27 1 0.826838 0.172187 0.0386212
477 1 0.92955 0.293014 0.0275559
45 1 0.870539 0.0146203 0.0276612
510 2 0.0632044 0.409496 0.0383762
85 1 0.206222 0.45422 0.0285406
581 2 0.215527 0.265483 0.0519901
544 2 0.982925 0.311616 0.0907205
454 1 0.310185 0.40611 0.00473726
512 2 0.479423 0.32767 0.0236223
558 2 0.524909 0.432218 0.0507906
600 2 0.581305 0.394469 0.976169
511 2 0.637207 0.365316 0.0302557
529 2 0.809096 0.318684 0.054586
485 1 0.960381 0.416136 0.0622261
73 1 0.785487 0.497112 0.0242057
487 1 0.904824 0.449557 0.00796719
532 2 0.991402 0.538382 0.0339233
489 1 0.26573 0.604208 0.00111022
997 2 0.131934 0.642519 0.0407388
494 1 0.280076 0.816804 0.0221433
63 1 0.418491 0.468566 0.0294956
963 2 0.326564 0.51602 0.0586588
9 1 0.331595 0.666764 0.0321796
552 2 0.658529 0.586333 0.0443797
33 1 0.622474 0.740868 0.0263031
978 2 0.467687 0.639944 0.00996171
86 1 0.866906 0.552058 0.0555974
49 1 0.809294 0.667733 0.0258213
989 2 0.688814 0.629924 0.00125545
524 2 0.946214 0.704222 0.0457428
525 2 0.0907662 0.785365 0.0378702
23 1 0.183772 0.957561 0.0404672
936 2 0.965339 0.91523 0.992007
471 1 0.173428 0.920578 0.00045521
514 2 0.210618 0.803753 0.0641544
947 2 0.393865 0.800902 0.0621121
18 1 0.326835 0.92883 0.996364
455 1 0.437459 0.822806 0.0128777
95 1 0.527793 0.827511 0.0468891
516 2 0.576701 -0.000551548 0.0532703
998 2 0.529111 0.732849 0.0759172
507 2 0.856718 0.97389 0.0633494
545 2 0.808755 0.825779 0.0322791
549 2 0.954184 0.865727 0.0362953
21 1 0.824356 0.832199 0.0708297
468 1 0.726705 0.963721 0.0363026
528 2 0.0769978 0.116009 0.0644257
486 1 0.00695937 0.141238 0.0959603
71 1 0.975661 0.155729 0.0403829
57 1 0.226083 0.207707 0.110881
498 1 0.203764 0.128842 0.0368098
560 2 0.238802 0.111866 0.0775617
48 1 0.32737 0.989482 0.0384367
52 1 0.325516 0.25204 0.0847185
92 1 0.427369 0.140511 0.0732939
559 2 0.344633 0.0359821 0.0995653
565 2 0.756447 0.15033 0.111438
96 1 0.588489 0.11822 0.0838156
598 2 0.697948 0.982836 0.0832093
982 2 0.863795 0.168812 0.072358
100 1 0.685589 0.330447 0.13465
977 2 0.135837 0.250015 0.0818915
957 2 0.0609513 0.476809 0.101527
985 2 0.187526 0.358072 0.10294
125 1 0.128474 0.529251 0.138995
7 1 0.344795 0.344893 0.051937
527 2 0.470562 0.336405 0.0804488
78 1 0.430323 0.268447 0.127442
503 2 0.585516 0.22907 0.051312
521 2 0.718968 0.233565 0.0699061
79 1 0.637629 0.361743 0.0729467
533 2 0.723218 0.416343 0.104239
34 1 0.606331 0.253726 0.104418
41 1 0.815991 0.28682 0.105966
35 1 0.754396 0.477396 0.0674396
981 2 0.929033 0.212903 0.127197
65 1 0.168402 0.498925 0.0663389
517 2 0.059756 0.633686 0.106655
523 2 0.205524 0.700394 0.0923346
56 1 0.492966 0.625579 0.047796
537 2 0.37823 0.826596 0.0985778
538 2 0.45069 0.499238 0.0799191
520 2 0.745716 0.709269 0.0597633
547 2 0.378218 0.666661 0.0767006
15 1 0.601831 0.529745 0.0795521
971 2 0.521216 0.706542 0.112819
37 1 0.00676894 0.568826 0.070511
77 1 0.8743 0.449196 0.0935641
64 1 0.742586 0.63263 0.0896974
40 1 0.89774 0.674423 0.0823141
70 1 0.068976 0.736718 0.0784508
967 2 0.0178722 0.956027 0.0654522
546 2 0.125085 0.0439153 0.101046
542 2 0.0994159 0.838906 0.116678
577 2 0.470754 0.930364 0.123222
597 2 0.250479 0.903452 0.112137
555 2 0.152453 0.918851 0.0832989
539 2 0.224491 0.0827809 0.132098
548 2 0.446561 0.944191 0.0738035
513 2 0.573463 0.858135 0.0919599
534 2 0.667517 0.853692 0.0577877
39 1 0.964203 0.836287 0.090626
502 2 0.705735 0.766429 0.0985452
575 2 0.81565 0.901008 0.104814
10 1 0.857072 0.817956 0.133132
42 1 0.853217 0.04858 0.094489
583 2 0.244894 0.123168 0.176922
93 1 0.115286 0.182015 0.139663
44 1 1.00078 0.0724678 0.140902
589 2 0.356029 0.174966 0.154306
536 2 0.382244 0.0531526 0.179223
74 1 0.277697 0.260035 0.188215
543 2 0.6468 0.996507 0.119338
599 2 0.471244 0.120887 0.128647
99 1 0.655167 0.222667 0.175132
554 2 0.617509 0.126928 0.144137
89 1 0.54981 0.288997 0.153297
1 1 0.96225 0.346673 0.155825
566 2 0.940289 0.185297 0.16805
576 2 0.801896 0.165676 0.144728
11 1 0.0717136 0.308979 0.120709
83 1 0.972759 0.516606 0.131189
107 1 0.123522 0.409016 0.159072
595 2 0.279273 0.473787 0.149449
82 1 0.237869 0.277034 0.14931
561 2 0.376534 0.4098 0.109154
76 1 0.382139 0.331576 0.159509
556 2 0.353409 0.434498 0.203807
62 1 0.581707 0.410575 0.108221
604 2 0.650478 0.445846 0.160451
557 2 0.498433 0.477416 0.152544
590 2 0.863754 0.382682 0.132734
101 1 0.204669 0.373481 0.193837
80 1 0.789215 0.297584 0.174277
564 2 0.835437 0.44542 0.170947
91 1 0.229409 0.642756 0.135317
632 2 0.0537062 0.603008 0.173952
551 2 0.286923 0.567735 0.0946772
38 1 0.397965 0.738565 0.161541
141 1 0.40047 0.58082 0.168537
97 1 0.254165 0.672671 0.170043
509 2 0.399073 0.573334 0.126179
519 2 0.554309 0.547341 0.11557
587 2 0.703516 0.662067 0.130485
14 1 0.655101 0.605563 0.169134
139 1 0.30402 0.76013 0.12247
50 1 0.791478 0.530901 0.141954
553 2 0.0736217 0.706634 0.139245
594 2 0.893836 0.684552 0.121468
111 1 0.90993 0.618534 0.160717
615 2 0.777405 0.723242 0.164516
122 1 0.131566 0.812389 0.163294
578 2 0.129251 0.970413 0.14367
53 1 0.278217 0.856878 0.150877
88 1 0.361673 0.00162717 0.142662
59 1 0.662449 0.829797 0.129275
90 1 0.513362 0.987545 0.155599
68 1 0.515722 0.820285 0.147651
550 2 0.982048 0.97969 0.108477
541 2 0.891297 0.0382913 0.17404
98 1 0.973886 0.899673 0.151002
60 1 0.8613 0.00457002 0.137742
540 2 0.770915 0.883775 0.158925
118 1 0.0742632 0.101533 0.176867
603 2 0.224583 0.0383176 0.235805
109 1 0.949119 0.154999 0.205103
569 2 0.172471 0.166373 0.227046
112 1 0.460167 0.184574 0.179309
110 1 0.408171 0.990932 0.218262
626 2 0.340124 0.127016 0.211681
157 1 0.632742 0.0656612 0.181132
55 1 0.691491 0.107726 0.221662
607 2 0.510538 0.139344 0.210576
26 1 0.800266 0.155793 0.188984
105 1 0.725361 0.0216776 0.151811
102 1 0.93049 0.996078 0.211518
610 2 0.0201359 0.225094 0.238974
638 2 0.0726166 0.256827 0.18343
54 1 0.982449 0.484976 0.184357
651 2 0.218929 0.468596 0.223644
87 1 0.188352 0.521777 0.186152
531 2 0.484083 0.450084 0.227117
586 2 0.429384 0.305075 0.243202
611 2 0.287031 0.277513 0.231867
84 1 0.405922 0.285986 0.20401
671 2 0.578362 0.410921 0.194453
150 1 0.721104 0.5006 0.193141
585 2 0.702664 0.337521 0.204598
635 2 0.592085 0.537726 0.227717
670 2 0.564663 0.29465 0.21797
592 2 0.701425 0.421919 0.23788
535 2 0.0383058 0.421518 0.225947
580 2 0.947019 0.326175 0.196349
81 1 0.856701 0.57478 0.224096
622 2 0.130744 0.700071 0.197561
72 1 0.290305 0.800255 0.192093
104 1 0.987313 0.770597 0.173406
169 1 0.00896735 0.802949 0.217391
116 1 0.505583 0.555942 0.196914
608 2 0.427434 0.608606 0.231883
606 2 0.320511 0.59485 0.201296
570 2 0.473306 0.729224 0.192141
66 1 0.625177 0.746533 0.175879
593 2 0.600047 0.676424 0.20986
144 1 0.524188 0.643237 0.146461
582 2 -0.00492077 0.643268 0.206901
94 1 0.744896 0.656123 0.203035
563 2 0.882325 0.728446 0.195507
128 1 0.0824397 0.0507611 0.216861
596 2 0.0548828 0.918327 0.186121
616 2 0.102368 0.902042 0.225708
127 1 0.19595 0.965966 0.183801
613 2 0.294058 0.912791 0.225424
562 2 0.409737 0.885386 0.178957
69 1 0.488517 0.866369 0.211177
572 2 0.630065 0.974461 0.209041
149 1 0.635704 0.824449 0.221417
530 2 0.628468 0.906349 0.173285
108 1 0.899799 0.886217 0.187828
642 2 0.854959 0.736507 0.235957
117 1 0.778922 0.978351 0.20078
172 1 0.977682 0.122144 0.291362
667 2 0.983171 0.0700483 0.244679
145 1 0.278798 0.240675 0.306034
119 1 0.144846 0.24134 0.270067
602 2 0.38103 0.113961 0.291364
124 1 0.363173 0.0234932 0.258142
612 2 0.42855 0.261438 0.28387
138 1 0.446564 0.145335 0.252442
140 1 0.264667 0.167748 0.264914
177 1 0.256968 0.0103988 0.291414
579 2 0.546974 0.032 0.236954
653 2 0.582314 0.279718 0.262012
151 1 0.741197 0.124282 0.268014
623 2 0.708581 0.261815 0.237293
183 1 0.596608 0.0906726 0.268536
605 2 0.830038 0.0663715 0.236507
601 2 0.850157 0.250689 0.22404
652 2 0.894089 0.171993 0.255842
618 2 0.0780332 0.471797 0.265134
137 1 0.267683 0.333419 0.268546
617 2 0.339683 0.476417 0.255322
675 2 0.522553 0.414477 0.267244
123 1 0.672368 0.363323 0.277462
135 1 0.989377 0.336499 0.267897
129 1 0.812227 0.292974 0.269232
161 1 0.87421 0.419344 0.221511
636 2 0.196645 0.63668 0.256498
620 2 0.09772 0.624419 0.282961
609 2 0.108825 0.569758 0.231717
120 1 0.248572 0.749944 0.240325
142 1 0.352358 0.676138 0.262936
624 2 0.357505 0.724278 0.304812
164 1 0.480363 0.711899 0.280208
697 2 0.344132 0.580915 0.294989
146 1 0.488119 0.536934 0.308774
67 1 0.629839 0.5219 0.267835
115 1 0.557192 0.734273 0.246949
630 2 0.768621 0.48566 0.2726
665 2 0.723595 0.59918 0.243638
634 2 0.936484 0.545364 0.255895
629 2 0.00908157 0.558463 0.305996
160 1 0.836209 0.636833 0.27151
621 2 0.018119 0.681358 0.240891
567 2 0.0378833 0.796146 0.263665
568 2 0.211994 0.879192 0.263127
176 1 0.134514 0.0763157 0.273135
121 1 0.103013 0.904435 0.288074
247 1 0.203848 0.741743 0.282281
591 2 0.398151 0.767862 0.228753
134 1 0.500482 0.906413 0.250446
672 2 0.37396 0.824512 0.264542
103 1 0.560457 0.825429 0.282668
153 1 0.425367 0.900557 0.297441
113 1 0.762173 0.799872 0.203051
131 1 0.673394 0.958038 0.260674
647 2 0.71497 0.791952 0.252111
648 2 0.847248 0.843226 0.272592
614 2 0.961062 0.939097 0.255186
625 2 0.816756 0.89232 0.236983
588 2 0.964785 0.900258 0.3039
680 2 0.163318 0.966871 0.319116
185 1 0.166604 0.1442 0.309348
179 1 0.104871 0.211839 0.367098
163 1 0.349557 0.911818 0.339008
646 2 0.281221 0.0582477 0.333215
197 1 0.406766 0.157347 0.332292
201 1 0.250061 0.173366 0.364716
182 1 0.304453 0.0209473 0.370528
640 2 0.542817 0.234627 0.314142
627 2 0.70268 0.211804 0.331278
126 1 0.709334 0.222365 0.295065
658 2 0.498803 0.0406904 0.31573
190 1 0.634178 0.0970255 0.311072
719 2 0.721967 0.0742634 0.349663
679 2 0.846398 0.112162 0.31227
628 2 0.84758 0.00225508 0.271839
130 1 0.142033 0.384958 0.300085
156 1 0.88812 0.466752 0.370121
656 2 0.162893 0.316168 0.336153
114 1 0.394015 0.428838 0.291138
166 1 0.228 0.499786 0.284084
168 1 0.453228 0.439957 0.339695
657 2 0.410428 0.313671 0.322551
637 2 0.556958 0.375623 0.305479
650 2 0.552705 0.348832 0.354898
699 2 0.705247 0.37632 0.317319
148 1 0.589098 0.50686 0.336254
662 2 0.894601 0.256155 0.305482
180 1 0.0510871 0.248678 0.307948
584 2 0.0144301 0.389721 0.360537
194 1 0.794414 0.467377 0.342797
649 2 0.0202253 0.375978 0.322404
661 2 0.286159 0.467679 0.322243
641 2 0.142014 0.500042 0.329944
207 1 0.0902626 0.653185 0.346702
691 2 0.225056 0.62553 0.326066
720 2 0.30401 0.774675 0.346335
171 1 0.378447 0.59381 0.340573
158 1 0.730015 0.528771 0.306504
619 2 0.634573 0.689115 0.273168
170 1 0.731133 0.655308 0.339523
673 2 0.637948 0.623381 0.309692
639 2 0.864303 0.432905 0.308169
191 1 0.947453 0.574559 0.344597
674 2 0.85242 0.736753 0.36099
175 1 0.0360892 0.937732 0.341317
231 1 0.107483 0.760263 0.313846
152 1 0.940668 0.702582 0.288554
696 2 0.485669 0.817057 0.323502
702 2 0.432748 0.902411 0.372068
178 1 0.259262 0.849586 0.306597
202 1 0.663775 0.954744 0.325654
147 1 0.582954 0.966622 0.292047
154 1 0.753326 0.750946 0.297851
676 2 0.807285 0.850065 0.336844
724 2 0.655038 0.798076 0.325529
700 2 0.952595 0.809935 0.335067
155 1 0.847032 0.621936 0.317556
655 2 0.791813 0.94894 0.303645
654 2 0.911678 0.90843 0.371898
106 1 0.166202 0.331717 0.38611
677 2 0.138115 0.0686238 0.352556
706 2 0.455723 0.0513962 0.354408
188 1 0.335342 0.121114 0.402925
213 1 0.404164 0.118887 0.436847
678 2 0.580566 0.123617 0.350927
187 1 0.493065 0.0875449 0.403117
698 2 0.636987 0.0662431 0.38251
133 1 0.75203 0.195095 0.388893
709 2 0.840131 0.298976 0.414576
687 2 1.00088 0.134654 0.346286
159 1 0.895243 0.00969868 0.339959
165 1 0.915793 0.248143 0.382693
189 1 0.85183 0.165547 0.350363
220 1 0.165316 0.516351 0.372253
710 2 0.0369225 0.368244 0.40185
167 1 0.284371 0.33157 0.36051
136 1 0.408771 0.189916 0.36881
736 2 0.284112 0.262172 0.405185
692 2 0.440458 0.46086 0.399902
132 1 0.302051 0.399931 0.398697
686 2 0.58814 0.234256 0.37802
143 1 0.428384 0.336229 0.375689
643 2 0.574424 0.388525 0.388117
217 1 0.703646 0.336732 0.355041
244 1 0.952005 0.382365 0.435824
664 2 0.875916 0.329872 0.349878
693 2 0.937319 0.4911 0.405588
216 1 0.760053 0.3804 0.386931
688 2 0.184754 0.576298 0.407997
199 1 0.266274 0.636443 0.369353
205 1 0.100228 0.835876 0.411773
203 1 0.067308 0.670371 0.417709
645 2 0.323723 0.483994 0.369033
631 2 0.497565 0.548505 0.369566
221 1 0.298768 0.844077 0.387319
223 1 0.410229 0.712003 0.371389
237 1 0.330414 0.642979 0.418755
195 1 0.546534 0.693835 0.346915
198 1 0.710749 0.749427 0.371218
173 1 0.566569 0.648629 0.390596
723 2 0.625299 0.505194 0.405914
644 2 0.683356 0.558872 0.373095
666 2 0.82037 0.571443 0.395856
196 1 0.0156409 0.579674 0.382261
737 2 0.925233 0.676301 0.408965
225 1 0.162206 0.741914 0.376701
682 2 0.200683 0.886552 0.359889
660 2 0.0526805 0.897284 0.37828
212 1 0.235621 0.948689 0.40776
232 1 0.486781 0.874588 0.41273
238 1 0.56285 0.977822 0.362564
725 2 0.555994 0.812633 0.381823
633 2 0.691166 0.877059 0.399964
703 2 0.700706 0.895726 0.362108
690 2 0.965966 0.083335 0.382148
200 1 0.0120556 0.736523 0.375699
209 1 0.820055 0.809887 0.394178
749 2 0.800905 0.0281156 0.383639
236 1 0.217701 0.0829204 0.434862
211 1 0.132809 0.195957 0.407451
181 1 0.103934 0.0302363 0.402708
251 1 0.0516776 0.969088 0.440083
321 1 0.0943615 0.143579 0.447098
265 1 0.221106 0.241126 0.440102
235 1 0.415654 0.135789 0.476459
234 1 0.524193 0.305322 0.455966
718 2 0.658171 0.283632 0.418556
233 1 0.549486 0.133357 0.439364
684 2 0.803266 0.0269163 0.442053
716 2 0.679431 0.128595 0.417899
705 2 0.870992 0.0975709 0.411266
715 2 0.934019 0.0737147 0.449897
215 1 0.813952 0.102947 0.481185
767 2 0.993344 0.243004 0.468177
186 1 0.0484161 0.500087 0.435277
184 1 0.0860883 0.306979 0.437691
192 1 0.0503764 0.407362 0.469818
261 1 0.172432 0.434271 0.420759
732 2 0.213027 0.380699 0.459879
162 1 0.495347 0.258089 0.413204
669 2 0.396499 0.364669 0.431709
714 2 0.435057 0.465155 0.459235
239 1 0.617091 0.431751 0.47127
689 2 0.822841 0.204072 0.443018
240 1 0.72381 0.38403 0.443012
193 1 0.5616 0.415529 0.428453
275 1 0.836115 0.523267 0.432476
659 2 0.975272 0.221629 0.41534
685 2 0.910765 0.502713 0.469999
296 1 0.207664 0.58639 0.449422
745 2 0.103646 0.694387 0.45662
712 2 0.203287 0.737051 0.417304
242 1 0.326506 0.507858 0.432455
779 2 0.543106 0.562118 0.43408
713 2 0.376549 0.613147 0.455281
792 2 0.242456 0.503877 0.481419
722 2 0.602762 0.704401 0.455954
204 1 0.679474 0.563587 0.450226
229 1 0.704448 0.699196 0.409436
246 1 0.808328 0.707352 0.436823
222 1 0.953153 0.644055 0.455661
663 2 0.819599 0.63711 0.47119
735 2 0.226963 0.845305 0.477309
746 2 0.183242 0.894041 0.440849
741 2 0.359998 0.810572 0.425321
214 1 0.348099 0.899079 0.456168
257 1 0.369505 0.97039 0.423274
707 2 0.47484 0.703507 0.422895
708 2 0.279146 0.745458 0.456787
208 1 0.525054 0.974115 0.439228
174 1 0.590273 0.795015 0.426774
683 2 0.672129 0.935974 0.435474
206 1 0.754028 0.803519 0.463299
681 2 0.940787 0.925781 0.413954
755 2 0.938478 0.794667 0.438382
717 2 0.813884 0.870194 0.42846
224 1 0.893294 0.933365 0.459263
210 1 0.169589 0.000841149 0.482814
791 2 0.132678 0.169498 0.515702
280 1 0.225091 0.00237484 0.549663
284 1 0.259848 0.148373 0.470797
753 2 0.498171 0.917112 0.479376
742 2 0.41551 0.119634 0.516713
264 1 0.652689 0.0784781 0.467793
734 2 0.702951 0.26571 0.466061
804 2 0.672846 0.18265 0.497871
729 2 0.760437 0.0380247 0.517603
309 1 0.539985 0.0636147 0.498169
308 1 0.891101 0.125977 0.521568
711 2 0.998035 0.101585 0.496924
763 2 0.151539 0.23756 0.479289
272 1 0.130898 0.313071 0.534407
695 2 0.174533 0.375922 0.497747
747 2 0.34661 0.370539 0.480982
249 1 0.376604 0.488146 0.508629
757 2 0.285632 0.273341 0.509645
259 1 0.427161 0.263093 0.51987
738 2 0.520129 0.221765 0.490006
269 1 0.491915 0.389593 0.490896
739 2 0.852558 0.327168 0.470688
260 1 0.795858 0.30152 0.517083
740 2 0.951017 0.306587 0.515683
262 1 0.985067 0.454215 0.509592
278 1 0.207251 0.663682 0.489595
762 2 0.0782817 0.559511 0.47911
766 2 0.200356 0.549058 0.512769
754 2 0.927825 0.674592 0.528276
227 1 0.362286 0.628 0.496918
255 1 0.443059 0.787149 0.464476
721 2 0.770511 0.43245 0.492583
228 1 0.665853 0.590403 0.489527
218 1 0.515796 0.60082 0.470803
744 2 0.68089 0.489147 0.530811
694 2 0.671833 0.634742 0.526951
748 2 0.528637 0.600033 0.510796
300 1 0.590657 0.771669 0.490832
701 2 0.0130504 0.691035 0.49064
314 1 0.756206 0.731998 0.496743
726 2 0.059049 0.838819 0.48011
793 2 0.143957 0.756788 0.510221
799 2 0.0415454 0.96481 0.502768
256 1 0.0972716 0.901349 0.531716
780 2 0.241981 0.916748 0.518359
733 2 0.336939 0.00682203 0.482764
731 2 0.396377 0.959084 0.517135
752 2 0.3594 0.820846 0.500446
266 1 0.489491 0.782893 0.516693
727 2 0.606367 0.850777 0.461092
772 2 0.745576 0.95076 0.479329
704 2 0.631322 0.951311 0.50014
290 1 0.0758145 0.042756 0.541637
250 1 0.889717 0.990924 0.50094
668 2 0.75679 0.889566 0.528425
774 2 0.897015 0.784928 0.481597
243 1 0.912465 0.942794 0.540191
770 2 0.995187 0.803311 0.519236
802 2 0.17237 0.105578 0.587337
781 2 0.166998 0.155473 0.554894
281 1 0.978362 0.0882534 0.572455
788 2 0.217976 0.251179 0.585345
302 1 0.0669944 0.218288 0.585295
310 1 0.313117 0.149925 0.565028
289 1 0.470617 0.100574 0.556452
728 2 0.269628 0.268554 0.548099
809 2 0.601609 0.203788 0.568223
824 2 0.612708 0.0735014 0.545989
759 2 0.736365 0.18612 0.541735
294 1 0.994726 0.206587 0.545132
789 2 0.80444 0.0587388 0.559723
761 2 0.852216 0.286717 0.554283
784 2 0.880695 0.188605 0.588879
286 1 0.95895 0.370815 0.585945
295 1 0.170275 0.40826 0.562535
315 1 0.100783 0.480682 0.532262
790 2 0.980148 0.534609 0.544062
349 1 0.101449 0.471563 0.593101
267 1 0.306622 0.435924 0.537709
298 1 0.327561 0.39117 0.584749
764 2 0.395778 0.229732 0.589248
263 1 0.413875 0.33399 0.554569
778 2 0.563421 0.20812 0.527059
285 1 0.548807 0.412006 0.524018
219 1 0.657662 0.330482 0.503747
270 1 0.621378 0.342026 0.550216
794 2 0.578513 0.332579 0.595812
274 1 0.700933 0.44255 0.574525
765 2 0.00791327 0.367219 0.548682
776 2 0.868544 0.444859 0.566138
797 2 0.200404 0.55483 0.562177
785 2 0.0865863 0.634739 0.529784
299 1 0.374486 0.546397 0.588531
775 2 0.339761 0.719987 0.576709
769 2 0.520908 0.483045 0.598435
288 1 0.472484 0.699147 0.589078
258 1 0.35468 0.595941 0.539652
322 1 0.450837 0.702386 0.549029
366 1 0.479944 0.516498 0.553989
254 1 0.617137 0.583869 0.560841
241 1 0.604286 0.604808 0.606796
230 1 0.833798 0.53415 0.521367
245 1 0.792905 0.58364 0.55902
273 1 0.711796 0.692739 0.581916
751 2 0.247923 0.714904 0.53635
796 2 0.253355 0.878509 0.581604
800 2 0.130175 0.950743 0.594121
287 1 0.268235 0.0805655 0.520218
798 2 0.327104 0.832257 0.546504
348 1 0.362833 0.971747 0.56761
777 2 0.438226 0.855052 0.585975
279 1 0.477224 0.910395 0.546303
350 1 0.588304 0.803799 0.58074
823 2 0.617998 0.772529 0.538781
282 1 0.69849 0.938785 0.558755
297 1 0.798287 0.807595 0.574074
306 1 0.791544 0.723019 0.533223
730 2 0.962998 0.774229 0.562973
795 2 0.910889 0.63148 0.57428
850 2 0.969015 0.992259 0.607092
807 2 0.0580649 0.146996 0.661477
271 1 0.961559 0.896728 0.6339
771 2 0.178145 0.0712811 0.637476
372 1 0.398952 0.0208599 0.603615
832 2 0.304299 0.123257 0.618163
277 1 0.681311 0.0771249 0.587875
374 1 0.724772 0.0817924 0.63678
268 1 0.644513 0.188281 0.611386
319 1 0.507627 0.115927 0.594219
758 2 0.563494 0.976596 0.571644
301 1 0.793741 0.240746 0.620911
311 1 0.749035 0.276675 0.578066
808 2 0.822433 0.0324506 0.607182
810 2 0.953894 0.258966 0.62701
291 1 0.0920154 0.185061 0.622189
782 2 0.230848 0.229369 0.643018
357 1 0.153291 0.360142 0.61771
293 1 0.456915 0.378744 0.621483
292 1 0.304083 0.340738 0.616137
248 1 0.482732 0.217638 0.627958
845 2 0.64035 0.467687 0.620451
335 1 0.584179 0.329579 0.636888
226 1 0.542439 0.410956 0.666246
320 1 0.774824 0.394309 0.617514
817 2 0.855252 0.344034 0.650136
331 1 0.987458 0.400006 0.626698
811 2 0.0671276 0.656149 0.58924
814 2 0.229465 0.596827 0.596389
283 1 0.111895 0.758254 0.555122
891 2 0.0774704 0.509665 0.638472
341 1 0.308468 0.491151 0.622959
328 1 0.467755 0.588238 0.63021
253 1 0.280136 0.666115 0.628215
768 2 0.527435 0.555029 0.664574
303 1 0.762619 0.568776 0.597908
313 1 0.969738 0.526126 0.600805
750 2 0.864944 0.689928 0.607267
825 2 0.985186 0.655068 0.630825
840 2 0.831349 0.509807 0.637202
822 2 0.0316906 0.804781 0.60007
368 1 0.180647 0.746355 0.602637
252 1 0.104198 0.94547 0.630863
743 2 0.339141 0.813777 0.614583
760 2 0.259977 0.954172 0.618698
326 1 0.550042 0.940887 0.609051
842 2 0.223288 0.844093 0.645869
818 2 0.485246 0.741828 0.627539
317 1 0.389526 0.787544 0.673021
325 1 0.659233 0.777128 0.618619
783 2 0.712832 0.926299 0.602873
324 1 0.638866 0.924984 0.641595
843 2 0.885479 0.845134 0.600095
865 2 0.0255111 0.925404 0.567739
355 1 0.923275 0.805585 0.667165
347 1 0.172036 0.958833 0.663404
829 2 0.121405 0.0207668 0.696361
833 2 0.223951 0.101895 0.721197
416 1 0.202585 0.180494 0.687076
803 2 0.549327 0.0826448 0.633586
787 2 0.307056 0.104436 0.657885
333 1 0.48308 0.156163 0.665154
323 1 0.344754 0.176808 0.693136
346 1 0.301418 0.0167652 0.6976
304 1 0.759645 0.055056 0.673691
376 1 0.636934 0.186434 0.659018
332 1 0.895636 0.11456 0.646408
846 2 0.945447 0.120418 0.689584
812 2 0.262458 0.356584 0.673353
861 2 0.0722619 0.370662 0.661424
424 1 0.159489 0.35294 0.699185
387 1 0.98544 0.410016 0.692018
834 2 0.395592 0.311091 0.65783
338 1 0.41252 0.39322 0.701823
851 2 0.251136 0.44966 0.727061
364 1 0.490653 0.535703 0.702622
862 2 0.403535 0.458749 0.662126
342 1 0.506345 0.261991 0.693231
365 1 0.712018 0.341063 0.662397
305 1 0.802921 0.203611 0.662901
816 2 0.680793 0.515531 0.654554
377 1 0.0325121 0.241009 0.688615
345 1 0.805563 0.461901 0.677101
801 2 0.242447 0.552567 0.653264
848 2 0.149588 0.495289 0.687919
815 2 0.196009 0.73338 0.678453
362 1 0.130278 0.601744 0.713905
900 2 0.316251 0.528038 0.691633
831 2 0.299255 0.669293 0.705999
773 2 0.67466 0.6484 0.674495
847 2 0.363562 0.651056 0.663455
340 1 0.784453 0.585026 0.694492
813 2 0.75364 0.665253 0.637828
873 2 0.493032 0.794925 0.699562
838 2 0.945213 0.558858 0.683764
839 2 0.875878 0.684858 0.656119
860 2 0.139999 0.673761 0.64249
821 2 0.0712271 0.805495 0.665962
396 1 0.143842 0.857694 0.696497
820 2 0.275792 0.947084 0.736129
836 2 0.0839904 0.623542 0.673206
756 2 0.437665 0.915649 0.634652
867 2 0.312752 0.899293 0.678273
874 2 0.421666 -0.0010755 0.667863
819 2 0.526077 0.865456 0.666892
343 1 0.570844 0.712664 0.656488
276 1 0.596566 0.0490072 0.6714
358 1 0.686986 0.923465 0.680869
849 2 0.827119 0.938178 0.657383
855 2 0.913145 0.687988 0.69715
826 2 0.815002 0.807483 0.633729
864 2 0.968282 0.97504 0.675359
881 2 0.107952 0.00960108 0.758001
830 2 0.0187973 0.25825 0.759739
786 2 0.247767 0.0544857 0.766862
876 2 0.143859 0.165793 0.760071
330 1 0.679145 0.043323 0.704601
353 1 0.541188 0.124508 0.702213
307 1 0.350643 0.125788 0.744248
316 1 0.413991 0.00192045 0.717817
827 2 0.815867 0.167248 0.701124
390 1 0.651771 0.246264 0.697677
389 1 0.683021 0.0737828 0.739512
882 2 0.582164 0.230826 0.739582
853 2 0.944198 0.165243 0.731242
352 1 0.989651 0.0115734 0.717537
879 2 0.888446 0.168045 0.766376
835 2 0.152578 0.349578 0.75032
863 2 0.0889985 0.168589 0.720373
361 1 0.0270023 0.318315 0.723372
410 1 0.952188 0.405813 0.747692
359 1 0.210736 0.251085 0.727585
837 2 0.420228 0.24154 0.725993
339 1 0.562455 0.376477 0.711894
329 1 0.73557 0.233411 0.782653
844 2 0.651089 0.505197 0.691671
889 2 0.494445 0.378694 0.745998
859 2 0.723324 0.372136 0.704139
449 1 0.696608 0.36883 0.743394
871 2 0.88323 0.290997 0.682345
930 2 0.738765 0.225025 0.738784
385 1 0.862208 0.294721 0.727113
370 1 0.847979 0.449944 0.718462
893 2 0.855447 0.508411 0.756659
857 2 0.177098 0.517711 0.756034
386 1 0.0793326 0.461436 0.725404
312 1 0.101117 0.659414 0.750715
896 2 0.057219 0.742182 0.704342
408 1 0.314586 0.348674 0.745865
373 1 0.356233 0.53705 0.742067
367 1 0.256249 0.64082 0.745703
318 1 0.430077 0.654282 0.723281
360 1 0.611449 0.660292 0.712728
898 2 0.7127 0.53154 0.731546
375 1 0.592292 0.484755 0.752299
909 2 0.637878 0.82714 0.709924
875 2 0.799755 0.708039 0.725782
473 1 0.982591 0.5721 0.731519
411 1 0.856931 0.6524 0.765765
805 2 0.0553662 0.864529 0.744891
384 1 0.966923 0.858893 0.703481
841 2 0.18608 0.781795 0.726895
371 1 0.185355 0.597892 0.787209
872 2 0.32504 0.813907 0.718744
886 2 0.425869 0.876859 0.744422
334 1 0.762235 0.922687 0.729615
430 1 0.526962 0.758378 0.737894
327 1 0.539616 0.964578 0.703811
972 2 0.670869 0.669189 0.74685
423 1 0.757185 0.769456 0.685621
869 2 0.819098 0.0566697 0.731753
404 1 0.780681 0.808256 0.761422
398 1 0.906511 0.807984 0.738997
356 1 0.885036 0.967866 0.760144
379 1 0.82134 0.902309 0.693748
413 1 0.151028 0.169896 0.798375
880 2 0.0162016 0.107281 0.779702
916 2 0.118678 0.0139858 0.797422
854 2 0.522585 0.0607649 0.740585
369 1 0.406983 0.0544442 0.785848
378 1 0.262609 0.26788 0.811027
924 2 0.545035 0.978072 0.771962
892 2 0.759993 0.0850208 0.770631
895 2 0.595945 0.138973 0.773947
922 2 0.809034 0.979035 0.795223
990 2 0.965703 0.246241 0.796768
964 2 0.849297 0.138055 0.804105
828 2 0.242035 0.392838 0.78814
393 1 0.0889758 0.317122 0.794637
932 2 0.11689 0.449988 0.810082
441 1 0.0519085 0.444755 0.773483
363 1 0.280792 0.250267 0.77145
443 1 0.446458 0.250242 0.766384
984 2 0.416471 0.219596 0.808123
901 2 0.415371 0.414943 0.783694
414 1 0.734913 0.371291 0.793629
884 2 0.571039 0.279792 0.788506
405 1 0.613803 0.571683 0.816253
806 2 0.910821 0.425263 0.791602
460 1 0.846328 0.314842 0.765799
351 1 0.975258 0.432768 0.823778
912 2 0.960209 0.564137 0.788308
392 1 0.174242 0.72834 0.81301
897 2 0.331144 0.765224 0.757112
400 1 0.470102 0.592571 0.769381
858 2 0.32523 0.554021 0.780997
917 2 0.489301 0.724057 0.811062
935 2 0.571847 0.435026 0.784033
391 1 0.607822 0.649208 0.780754
381 1 0.828054 0.53151 0.805925
422 1 0.709731 0.52297 0.782938
856 2 0.918698 0.663503 0.815833
870 2 0.763774 0.702189 0.800129
877 2 0.197542 0.850191 0.770346
921 2 0.961952 0.0221955 0.815002
344 1 0.0422884 0.751686 0.782199
406 1 0.0719621 0.856823 0.814244
942 2 0.233807 0.904982 0.810672
941 2 0.440241 0.912192 0.808345
382 1 0.585177 0.859314 0.816909
852 2 0.313313 0.929073 0.776626
383 1 0.333738 0.764469 0.797604
476 1 0.287983 0.10213 0.801371
920 2 0.658634 0.0314688 0.799691
337 1 0.536226 0.787603 0.773875
397 1 0.588093 0.903542 0.738027
354 1 0.68797 0.953544 0.764057
899 2 0.897453 0.805006 0.786359
885 2 0.910521 0.846398 0.825389
421 1 0.689414 0.848094 0.790547
420 1 0.0165565 0.93636 0.78333
388 1 0.247397 0.212268 0.849937
457 1 0.107565 0.0969924 0.833235
955 2 0.956417 0.159362 0.833505
954 2 0.0582204 0.210481 0.871888
412 1 0.520809 0.0698875 0.808793
380 1 0.429597 0.117433 0.841382
429 1 0.643249 0.17772 0.816021
949 2 0.579052 0.135543 0.850476
399 1 0.762209 0.888619 0.862971
976 2 0.754455 0.044172 0.839538
953 2 0.719721 0.299278 0.844344
499 1 0.806981 0.154674 0.857508
453 1 0.000568441 0.0744153 0.864408
431 1 0.0553357 0.286903 0.830323
878 2 0.219551 0.374112 0.848619
940 2 0.3381 0.51829 0.854697
426 1 0.129528 0.382258 0.879121
910 2 0.356843 0.393892 0.817296
440 1 0.413438 0.250097 0.870921
445 1 0.48078 0.466636 0.830941
418 1 0.293601 0.326645 0.893784
458 1 0.470602 0.387089 0.865514
462 1 0.533164 0.315966 0.824254
975 2 0.662982 0.427713 0.829353
960 2 0.568278 0.255782 0.874994
417 1 0.839067 0.287529 0.82127
435 1 0.897966 0.29425 0.861141
883 2 0.81006 0.432877 0.83141
966 2 0.978095 0.430574 0.863878
402 1 0.16211 0.525395 0.863074
944 2 0.0539105 0.588904 0.819657
911 2 -0.00386141 0.723902 0.841951
913 2 0.224643 0.549757 0.827632
22 1 0.281238 0.822698 0.840665
407 1 0.170749 0.670375 0.850203
401 1 0.426692 0.807691 0.833675
915 2 0.407068 0.591754 0.81329
937 2 0.29228 0.646938 0.870472
943 2 0.440111 0.590679 0.875428
887 2 0.555216 0.667341 0.848301
394 1 0.703017 0.638036 0.857103
939 2 0.600332 0.522882 0.864622
931 2 0.780457 0.488394 0.873887
923 2 0.506565 0.717797 0.886232
933 2 0.898809 0.571773 0.849012
497 1 0.813919 0.745996 0.852366
890 2 0.963809 0.655136 0.879832
452 1 0.259037 0.0320414 0.836168
968 2 0.180573 0.0778136 0.867886
428 1 0.0845881 0.965849 0.847742
30 1 0.0567229 0.796583 0.897941
434 1 0.408516 0.970195 0.845154
894 2 0.37167 0.797118 0.886566
866 2 0.585301 0.830759 0.853403
919 2 0.662818 0.723931 0.828812
481 1 0.607357 0.995195 0.835536
868 2 0.594603 0.96219 0.872097
425 1 0.908015 0.97623 0.850576
336 1 0.761244 0.85754 0.828415
451 1 0.880092 0.958 0.888839
469 1 0.94811 0.827683 0.869175
995 2 0.0700693 0.109801 0.902536
479 1 0.0975744 0.117511 0.946448
928 2 0.500183 0.0815524 0.881334
446 1 0.247073 0.178747 0.928899
934 2 0.220682 0.201247 0.888545
474 1 0.372947 0.109111 0.914625
908 2 0.581874 0.313105 0.945531
904 2 0.738303 0.000119867 0.893207
427 1 0.654855 0.114901 0.893424
484 1 0.643393 0.105909 0.934118
996 2 0.925336 0.201487 0.928509
888 2 0.758617 0.222229 0.888151
75 1 0.69526 0.323973 0.916559
929 2 0.964023 0.048947 0.930256
459 1 0.89174 0.135849 0.897752
950 2 0.775292 0.161837 0.921179
483 1 0.109528 0.249971 0.914494
25 1 0.115618 0.404636 0.919589
461 1 0.233089 0.477521 0.894618
493 1 0.527431 0.201161 0.910446