ITEM: TIMESTEP
5990
ITEM: NUMBER OF ATOMS
1000
ITEM: BOX BOUNDS pp pp pp
0.0000000000000000e+00 6.2996052494743662e+00
0.0000000000000000e+00 6.2996052494743662e+00
0.0000000000000000e+00 2.5198420997897465e+01
ITEM: ATOMS id type xs ys zs
11 1 0.189386 0.0899558 0.022179
957 2 0.295424 0.258655 0.0292733
7 1 0.304892 0.190214 0.0650968
512 2 0.600603 0.232551 0.0375346
12 1 0.521195 0.0813236 0.0616594
489 1 0.469887 0.197914 0.0135659
482 1 0.347287 0.095657 0.0367619
58 1 0.738636 0.08016 0.0283731
983 2 0.895542 0.182297 0.947011
980 2 0.672831 0.259315 0.00591183
522 2 0.474866 0.0553044 0.00816463
529 2 0.761412 0.249287 0.0422433
80 1 0.0574728 0.0695725 0.0550708
487 1 0.919667 0.208238 0.0384328
1000 2 0.952636 0.248778 0.995857
51 1 0.155692 0.386877 0.01253
977 2 0.0693969 0.270535 0.0235308
40 1 0.0258017 0.468197 0.0755557
985 2 0.15633 0.196971 0.0532924
511 2 0.0400766 0.453955 0.0300285
545 2 0.251366 0.50111 0.0318431
510 2 0.459497 0.354636 0.0390989
43 1 0.43561 0.498308 0.0270062
538 2 0.49633 0.343618 0.0795959
508 2 0.68791 0.418428 0.0247831
33 1 0.587482 0.461226 0.0487294
49 1 0.441039 0.494167 0.0750293
490 1 0.619895 0.377265 0.985431
485 1 0.850223 0.382884 0.0258255
521 2 0.791639 0.33393 0.97997
6 1 0.793269 0.475884 0.998832
981 2 0.971045 0.349798 0.0474087
70 1 0.0687856 0.61083 0.051574
507 2 0.899625 0.682816 0.0352948
21 1 0.240821 0.662724 0.0616812
18 1 0.360726 0.587407 0.0521924
4 1 0.449953 0.613677 0.991576
516 2 0.575417 0.624207 0.0313751
514 2 0.583359 0.511668 0.00494064
24 1 0.653926 0.730177 0.0105103
524 2 0.726432 0.617993 0.0377129
45 1 0.958064 0.804086 0.987488
477 1 0.0333208 0.992073 0.0173652
544 2 0.931587 0.946723 0.990964
1 1 0.116066 0.92978 0.0539409
951 2 0.269845 0.960393 0.0373171
525 2 0.350003 0.774829 0.0489244
8 1 0.435717 0.919966 0.0268405
997 2 0.267361 0.819531 0.0198212
982 2 0.173522 0.975001 0.00433348
3 1 0.452719 0.703197 0.0267581
504 2 0.645574 0.939733 0.022749
9 1 0.519691 0.759949 0.0617654
75 1 0.771973 0.937134 0.999912
505 2 0.700182 0.825166 0.983319
574 2 0.812132 0.172849 0.00347018
530 2 0.159596 0.91562 0.0965052
532 2 0.167589 0.288408 0.0898056
35 1 0.0893825 0.123862 0.0925723
555 2 0.260024 0.132088 0.101947
13 1 0.261928 0.0265426 0.078059
63 1 0.454279 0.211155 0.0556804
28 1 0.59287 0.987677 0.0945933
506 2 0.764085 0.249654 0.079389
526 2 0.684324 0.132591 0.0643265
527 2 0.64109 0.324253 0.103787
573 2 0.836296 0.132566 0.0591651
528 2 0.994869 0.217386 0.0717988
34 1 0.937604 0.0911506 0.0877734
533 2 0.899256 0.227413 0.107605
534 2 0.877138 0.00856797 0.0253834
89 1 0.0365514 0.34425 0.108209
598 2 0.0252443 0.189936 0.121568
61 1 0.151756 0.340023 0.0516529
517 2 0.340459 0.338644 0.0666854
86 1 0.183498 0.486536 0.0663525
38 1 0.404923 0.54316 0.137188
558 2 0.661013 0.334243 0.0676191
14 1 0.887645 0.524196 0.102969
15 1 0.889181 0.495771 0.0465167
559 2 0.772327 0.604161 0.0953727
509 2 0.898884 0.378498 0.0892666
564 2 0.243512 0.680611 0.119029
100 1 0.974744 0.77593 0.0572509
540 2 0.134329 0.761805 0.074177
10 1 0.932613 0.628344 0.0789112
560 2 0.147796 0.836301 0.137023
42 1 0.302241 0.571251 0.0934211
550 2 0.445907 0.64242 0.0788738
519 2 0.703401 0.505545 0.126171
23 1 0.552984 0.719535 0.0987257
50 1 0.771967 0.485735 0.0668747
523 2 0.644273 0.614037 0.0760867
64 1 0.00781845 0.59083 0.132599
549 2 0.676092 0.749989 0.0524296
39 1 0.101421 0.663337 0.107534
565 2 0.824745 0.711877 0.0690436
5 1 0.935011 0.85855 0.0301258
26 1 0.0244316 -0.00151174 0.111806
502 2 0.235657 0.861563 0.0680268
55 1 0.928699 0.92461 0.141859
69 1 0.995534 0.827803 0.108415
542 2 0.399306 0.677388 0.117113
37 1 0.406628 0.968477 0.0644903
546 2 0.422227 0.811185 0.0887087
27 1 0.624963 0.889169 0.0639019
503 2 0.744945 0.00403547 0.0907807
548 2 0.689367 0.813582 0.0934166
575 2 0.789266 0.959414 0.054405
71 1 0.973411 0.935677 0.0744351
95 1 0.79162 0.78799 0.0239278
44 1 0.859749 0.0362343 0.12302
551 2 0.390047 0.134138 0.136027
36 1 0.338824 0.00647145 0.112482
52 1 0.411662 0.103403 0.089244
98 1 0.355039 0.97965 0.149142
78 1 0.762692 0.132778 0.106072
83 1 0.647041 0.10016 0.130454
73 1 0.590342 0.18358 0.0916313
59 1 0.78563 0.379364 0.113229
576 2 0.943766 0.0991714 0.150423
554 2 0.855263 0.234699 0.141861
79 1 0.797671 0.227714 0.178145
77 1 0.328572 0.32048 0.130693
65 1 0.254022 0.430677 0.108475
60 1 0.983992 0.243351 0.164231
535 2 0.104725 0.482513 0.144221
998 2 0.596581 0.478368 0.088417
556 2 0.498406 0.418723 0.114081
56 1 0.382875 0.247641 0.09715
57 1 0.492272 0.0226686 0.118444
62 1 0.677861 0.405639 0.157064
562 2 0.663475 0.602229 0.155707
552 2 0.489484 0.271369 0.125422
92 1 0.710413 0.245063 0.136225
589 2 0.792364 0.53595 0.167462
553 2 0.909089 0.508556 0.142736
88 1 0.810825 0.61737 0.134449
99 1 0.986768 0.377355 0.141809
54 1 0.830346 0.374974 0.162567
94 1 0.951185 0.504459 0.181018
41 1 0.13404 0.523584 0.10155
590 2 0.238357 0.539384 0.14655
66 1 0.0143204 0.672297 0.175179
595 2 0.170993 0.723603 0.161146
570 2 0.352415 0.673314 0.152232
547 2 0.564929 0.572944 0.116224
531 2 0.524223 0.443084 0.155392
91 1 0.313345 0.566631 0.196501
537 2 0.513202 0.689802 0.142754
539 2 0.78377 0.792824 0.122612
543 2 0.659911 0.687435 0.122966
90 1 0.752716 0.729941 0.157453
513 2 0.911973 0.695305 0.113866
563 2 0.875703 0.657539 0.189387
76 1 0.0752199 0.989059 0.147084
101 1 0.191984 0.028588 0.123275
571 2 0.408908 0.835647 0.142284
566 2 0.218732 0.939555 0.158471
48 1 0.516924 0.854965 0.116783
97 1 0.299402 0.851295 0.112641
93 1 0.559898 0.932534 0.145163
572 2 0.615887 0.797828 0.144298
74 1 0.718966 0.942812 0.12341
600 2 0.773978 0.0828637 0.151214
68 1 0.796407 0.901087 0.163269
96 1 0.824151 0.876136 0.0880496
541 2 0.0191941 0.74104 0.141188
125 1 0.685584 0.111701 0.192469
588 2 0.0481984 0.735589 0.209072
81 1 0.209712 0.185242 0.13696
580 2 0.094963 0.096926 0.177564
581 2 0.253587 0.256789 0.173475
582 2 0.132537 0.377417 0.219367
601 2 0.0990558 0.257319 0.196171
650 2 0.114556 0.155045 0.235106
82 1 0.386086 0.148568 0.176663
53 1 0.509374 0.0951255 0.15838
602 2 0.281051 0.0716489 0.224309
108 1 0.332848 0.940401 0.188716
583 2 0.601396 0.239581 0.165491
112 1 0.681792 0.278779 0.201247
577 2 0.671063 0.00841542 0.165545
578 2 0.474845 0.93238 0.178373
599 2 0.601765 0.990336 0.209634
605 2 0.895113 0.0579711 0.185252
579 2 0.806005 0.0877841 0.213396
85 1 0.180691 0.344306 0.140985
610 2 0.214978 0.413139 0.182216
585 2 0.0662474 0.395149 0.175143
128 1 0.485669 0.232572 0.198486
611 2 0.405728 0.368718 0.197746
87 1 0.447869 0.273275 0.162912
561 2 0.355843 0.393637 0.162178
557 2 0.735216 0.418508 0.194924
586 2 0.604024 0.517972 0.185824
139 1 0.560794 0.670488 0.182967
635 2 0.661326 0.474794 0.221229
639 2 0.836699 0.50222 0.222788
84 1 0.881968 0.384318 0.203736
604 2 0.945401 0.193223 0.199369
615 2 0.969568 0.602471 0.219919
609 2 0.839372 0.305946 0.231797
115 1 0.93027 0.530713 0.256417
122 1 0.192056 0.67692 0.197214
111 1 0.102267 0.551069 0.179137
607 2 0.285874 0.445767 0.217539
141 1 0.1432 0.574591 0.221184
121 1 0.0199927 0.791327 0.247136
116 1 0.44724 0.560102 0.18084
72 1 0.402363 0.682917 0.206702
591 2 0.293227 0.753747 0.222942
592 2 0.710463 0.61376 0.199566
67 1 0.552099 0.653703 0.21776
123 1 0.736455 0.601847 0.238295
587 2 0.88761 0.780215 0.159528
113 1 0.792896 0.799001 0.188508
594 2 0.88474 0.714986 0.233991
596 2 0.164849 0.843169 0.187115
102 1 0.245798 0.0713288 0.179758
567 2 0.308603 0.786899 0.173028
597 2 0.470259 0.771672 0.174133
622 2 0.416947 0.832722 0.203571
117 1 0.227151 0.902492 0.221494
536 2 0.631533 0.836984 0.186401
593 2 0.563925 0.820544 0.220384
568 2 0.719375 0.733368 0.218494
569 2 0.916147 0.858298 0.204152
614 2 0.827859 0.846751 0.254019
120 1 0.0366692 0.868763 0.16695
105 1 0.0327133 0.940299 0.196452
150 1 0.000716889 0.30517 0.231802
626 2 0.306735 0.130892 0.253749
671 2 0.932841 0.376547 0.262326
603 2 0.484523 0.0631704 0.194868
107 1 0.282385 0.211143 0.205729
627 2 0.315385 0.0440015 0.293966
647 2 0.534045 0.0705248 0.252998
134 1 0.602376 0.149239 0.221851
160 1 0.769811 0.99678 0.242875
630 2 0.626046 0.955752 0.281503
131 1 0.717131 0.106923 0.269351
110 1 -0.000285778 0.06548 0.214664
104 1 0.998526 0.451272 0.220577
623 2 0.894756 0.111957 0.251421
640 2 0.785663 0.258042 0.279876
106 1 0.0430496 0.336477 0.291705
140 1 0.0842905 0.390552 0.257194
606 2 0.146886 0.259642 0.26223
137 1 0.301503 0.292627 0.236433
632 2 0.564696 0.376108 0.185156
157 1 0.423853 0.10773 0.227325
637 2 0.232352 0.436254 0.257593
638 2 0.504375 0.236884 0.238873
119 1 0.623584 0.223673 0.266169
634 2 0.550557 0.382018 0.228569
135 1 0.669594 0.331319 0.243324
109 1 0.747302 0.197905 0.240319
584 2 0.77951 0.420737 0.266601
145 1 0.998425 0.476944 0.290973
616 2 0.169982 0.715378 0.243165
636 2 0.118685 0.568917 0.276505
613 2 0.431491 0.66775 0.246665
617 2 0.275078 0.602524 0.250449
642 2 0.269148 0.718674 0.283387
608 2 0.419741 0.548673 0.22048
665 2 0.599699 0.587667 0.291346
114 1 0.573507 0.531867 0.248289
619 2 0.625663 0.4365 0.274965
143 1 0.465919 0.56186 0.273759
146 1 0.0414299 0.649474 0.248563
618 2 0.809876 0.582238 0.280805
166 1 0.97022 0.637073 0.289808
644 2 0.711699 0.679522 0.308987
621 2 0.922545 0.958451 0.26854
172 1 0.965582 0.228521 0.268683
152 1 0.111724 0.994667 0.235009
672 2 0.153093 0.867992 0.254624
103 1 0.598083 0.921934 0.242293
163 1 0.337427 0.846415 0.263527
127 1 0.390187 0.94078 0.23676
147 1 0.225886 0.980288 0.272696
118 1 0.504243 0.854429 0.267557
129 1 0.526824 0.788026 0.301991
144 1 0.745287 0.932206 0.209036
624 2 0.588384 0.688165 0.257747
124 1 0.91325 0.949411 0.231088
130 1 0.783953 0.716956 0.271147
649 2 0.064049 0.877448 0.314761
175 1 0.861126 0.114879 0.291428
151 1 0.075038 0.12489 0.283507
651 2 0.255466 0.151449 0.32953
652 2 0.93658 0.227913 0.307299
177 1 0.172125 0.0220238 0.30802
133 1 0.400382 0.233446 0.269242
673 2 0.524887 0.950064 0.306285
158 1 0.265823 0.226831 0.286928
628 2 0.655318 0.312794 0.297497
653 2 0.563218 0.149926 0.298969
655 2 0.663097 0.0390106 0.312435
165 1 0.60145 0.217947 0.338869
126 1 0.762844 0.159084 0.320342
680 2 0.887278 0.26584 0.338991
155 1 0.772061 0.947259 0.287374
675 2 0.905877 0.11443 0.333226
136 1 0.189705 0.410267 0.29163
657 2 0.161618 0.275767 0.347832
156 1 0.970065 0.39539 0.323463
187 1 0.11035 0.454516 0.32679
132 1 0.372614 0.408416 0.288402
662 2 0.325974 0.284361 0.3205
138 1 0.506715 0.336432 0.267658
633 2 0.42196 0.40688 0.333029
169 1 0.723385 0.478818 0.307318
190 1 0.488886 0.283268 0.306202
161 1 0.826565 0.375749 0.304413
185 1 0.727724 0.349592 0.336513
656 2 0.846024 0.370674 0.365193
641 2 0.100052 0.736761 0.280799
625 2 0.932126 0.789943 0.281448
612 2 0.28359 0.544975 0.29127
162 1 0.285069 0.613137 0.358397
167 1 0.214068 0.617458 0.324337
148 1 0.423318 0.724652 0.28164
142 1 0.392175 0.427543 0.244999
643 2 0.508662 0.486219 0.307418
170 1 0.494343 0.65424 0.313895
664 2 0.61806 0.525104 0.334967
195 1 0.66042 0.681711 0.349024
645 2 0.885018 0.551212 0.31307
661 2 0.0700701 0.609697 0.31509
192 1 0.985825 0.556275 0.347887
620 2 0.849735 0.712887 0.317293
666 2 0.7577 0.539823 0.341118
667 2 0.0719116 0.980555 0.273793
176 1 0.956725 0.950857 0.343576
696 2 0.1589 0.767794 0.328151
153 1 0.449379 0.995922 0.277386
168 1 0.335286 0.736555 0.322357
648 2 0.189595 0.861345 0.297958
198 1 0.458316 0.832393 0.33584
676 2 0.349663 0.889316 0.308602
154 1 0.542195 0.966692 0.359851
149 1 0.60766 0.861567 0.336763
670 2 0.666018 0.807614 0.255948
646 2 0.883684 0.894455 0.310238
171 1 1.00177 0.759457 0.337005
197 1 0.982715 0.0289121 0.303282
180 1 0.801862 0.985201 0.329046
674 2 0.766495 0.803908 0.339919
677 2 0.0315487 0.0904611 0.356176
182 1 0.0313155 0.223032 0.333587
681 2 0.0560978 0.128366 0.400107
706 2 0.277566 0.0351678 0.353049
212 1 0.175427 0.140878 0.367087
183 1 0.419328 0.983399 0.331216
208 1 0.520798 0.997618 0.393951
658 2 0.435407 0.0957995 0.365266
164 1 0.683226 0.0731641 0.348012
179 1 0.57377 0.181561 0.38055
204 1 0.752379 0.0369415 0.392004
660 2 0.858268 0.20968 0.393573
654 2 0.757375 0.206652 0.359029
699 2 0.024679 0.223652 0.371687
631 2 0.254649 0.455336 0.345145
687 2 0.221597 0.307038 0.387432
710 2 0.0268098 0.395739 0.360418
188 1 0.43792 0.144989 0.319214
682 2 0.321778 0.204259 0.372032
688 2 0.360609 0.356458 0.372771
707 2 0.436643 0.156198 0.401241
679 2 0.685009 0.32138 0.381027
678 2 0.460775 0.263428 0.349935
683 2 0.530865 0.330572 0.379143
159 1 0.578467 0.370254 0.340574
659 2 0.809097 0.325513 0.427536
181 1 0.990034 0.244025 0.418222
211 1 0.931874 0.360605 0.394975
685 2 0.0833417 0.367764 0.459582
686 2 0.137288 0.478763 0.375658
691 2 0.122726 0.697519 0.364886
217 1 0.336511 0.49748 0.379694
222 1 0.123933 0.588505 0.400333
216 1 0.981736 0.675204 0.378256
663 2 0.492579 0.523628 0.361996
692 2 0.378236 0.55459 0.329689
173 1 0.414274 0.683107 0.354319
213 1 0.429692 0.331619 0.412219
218 1 0.352436 0.639322 0.403186
193 1 0.545099 0.639186 0.382921
189 1 0.68547 0.471493 0.372638
669 2 0.698897 0.615536 0.384972
690 2 0.777342 0.424629 0.401281
186 1 0.83128 0.545658 0.378978
191 1 0.864748 0.650731 0.353863
199 1 0.824248 0.739544 0.390392
201 1 0.0964236 0.989846 0.340491
700 2 0.986202 0.922725 0.378508
247 1 0.122766 0.86222 0.361664
178 1 0.398075 0.935135 0.368616
697 2 0.26845 0.888957 0.34226
223 1 0.347228 0.780967 0.378574
203 1 0.227748 0.896088 0.384989
721 2 0.216235 0.7259 0.395559
629 2 0.686563 0.831743 0.297059
698 2 0.515425 0.827672 0.375819
174 1 0.676292 0.794569 0.37442
196 1 0.890333 0.808291 0.362734
221 1 0.952513 0.805418 0.408515
205 1 0.904285 0.0871172 0.373288
236 1 0.177606 0.122409 0.431599
735 2 0.162628 0.174583 0.471809
207 1 0.293872 0.0601065 0.389884
233 1 0.371788 0.0333549 0.427497
257 1 0.267779 0.0361021 0.455554
184 1 0.71813 0.193759 0.411198
704 2 0.669464 0.176068 0.452238
229 1 0.593889 0.0811642 0.417491
749 2 0.723112 0.00781077 0.434255
206 1 0.893273 0.96773 0.413033
209 1 0.855564 0.127038 0.430158
230 1 0.842418 0.197416 0.469312
705 2 0.941393 0.00903103 0.457889
235 1 0.0306281 0.134566 0.444331
237 1 0.0845456 0.404678 0.416228
232 1 0.301175 0.217405 0.411088
711 2 0.263029 0.422429 0.409122
736 2 0.167886 0.279146 0.43117
715 2 0.0160763 0.292357 0.485161
712 2 0.314237 0.487867 0.481556
238 1 0.433374 0.274447 0.446314
214 1 0.292491 0.198797 0.454973
242 1 0.31426 0.3839 0.444323
689 2 0.610529 0.417314 0.412469
684 2 0.576799 0.262764 0.421823
709 2 0.74799 0.448952 0.44636
239 1 0.599575 0.371197 0.452632
215 1 0.950226 0.486403 0.425055
210 1 0.942983 0.299015 0.44937
245 1 0.914351 0.466043 0.463462
695 2 0.23008 0.607815 0.426027
246 1 0.0659825 0.723958 0.421978
241 1 0.0946799 0.596938 0.441257
272 1 0.202164 0.467863 0.455237
741 2 0.298178 0.799806 0.483565
718 2 0.479357 0.479943 0.402299
716 2 0.367321 0.629258 0.455926
693 2 0.759956 0.573306 0.421642
713 2 0.480054 0.483888 0.454781
694 2 0.621605 0.555432 0.449906
244 1 0.602759 0.566266 0.416279
200 1 0.93341 0.639282 0.417977
240 1 0.789623 0.598496 0.461021
220 1 0.981376 0.521182 0.386075
231 1 0.132728 0.0115562 0.386557
720 2 0.0997263 0.863677 0.408737
717 2 0.371221 0.517312 0.427606
202 1 0.248737 0.948783 0.419673
708 2 0.421146 0.895604 0.418709
722 2 0.282284 0.761881 0.436765
723 2 0.492189 0.671201 0.426922
748 2 0.561248 0.970728 0.445469
703 2 0.65184 0.92333 0.393515
194 1 0.776629 0.856128 0.411793
668 2 0.594246 0.844538 0.422857
224 1 0.687846 0.88977 0.45572
725 2 0.0729702 0.995773 0.427369
724 2 0.790367 0.924856 0.364977
225 1 0.848349 0.877678 0.447002
250 1 0.771369 0.0416863 0.468247
727 2 0.251299 0.0441741 0.494777
731 2 0.115823 0.137025 0.518691
755 2 -0.00290726 0.0922874 0.491986
278 1 0.159538 0.975416 0.524795
228 1 0.400259 0.0549908 0.499654
733 2 0.325923 0.216537 0.497845
729 2 0.476405 0.117704 0.450204
255 1 0.67827 0.919067 0.497486
259 1 0.548953 0.221386 0.476863
728 2 0.530592 0.350233 0.532806
309 1 0.575313 0.0570007 0.527366
730 2 0.821086 0.0822663 0.512856
799 2 0.915147 0.219524 0.503981
261 1 0.225117 0.345911 0.478858
265 1 0.19158 0.479173 0.509034
740 2 0.08648 0.56934 0.482854
757 2 0.209338 0.240479 0.549181
761 2 0.00759904 0.532554 0.523295
732 2 0.272231 0.343907 0.522667
763 2 0.493818 0.476372 0.501331
234 1 0.415901 0.347358 0.484294
714 2 0.615496 0.350778 0.497838
739 2 0.745584 0.306634 0.467261
284 1 0.685758 0.378392 0.545058
734 2 0.857255 0.349164 0.48906
264 1 0.680745 0.145191 0.489594
260 1 0.998773 0.379798 0.513558
270 1 0.826997 0.378532 0.530366
266 1 0.174818 0.703169 0.465963
243 1 0.45476 0.798602 0.45129
737 2 0.516465 0.661354 0.469106
262 1 0.264432 0.635216 0.493503
248 1 0.41802 0.753359 0.513066
742 2 0.350114 0.471339 0.523005
747 2 0.411487 0.60362 0.493609
719 2 0.659647 0.716528 0.44578
219 1 0.742513 0.526218 0.514671
738 2 0.641865 0.504632 0.483462
774 2 0.64802 0.698863 0.487335
743 2 0.539584 0.638138 0.514091
744 2 0.883082 0.483648 0.501045
296 1 0.971636 0.641672 0.453907
770 2 1.00053 0.691367 0.506079
300 1 0.876989 0.756235 0.475605
701 2 -0.00112286 0.875282 0.484796
746 2 0.125311 0.864638 0.450456
726 2 0.104151 0.0301346 0.464268
267 1 0.131309 0.783489 0.510734
227 1 0.1663 0.901738 0.484012
702 2 0.399673 0.956914 0.469068
254 1 0.545138 0.0539517 0.485608
772 2 0.470076 0.896767 0.516016
275 1 0.811757 0.710367 0.433203
249 1 0.535727 0.859637 0.482475
274 1 0.772985 0.782881 0.507238
745 2 0.97799 0.802964 0.447717
226 1 0.830052 0.905196 0.485923
750 2 0.937461 0.821244 0.525925
252 1 0.0931959 0.137309 0.559529
751 2 0.256709 0.103691 0.537204
283 1 0.376811 0.915873 0.553166
778 2 0.646541 0.238783 0.52117
288 1 0.416749 0.0694204 0.548973
285 1 0.673001 0.981464 0.567165
310 1 0.542006 0.065557 0.568331
308 1 0.550695 0.904588 0.546503
754 2 0.712667 0.101322 0.540307
780 2 0.920469 0.130525 0.551807
281 1 0.788004 0.158129 0.577803
796 2 0.906426 0.0534614 0.587695
756 2 0.235903 0.297363 0.588345
760 2 0.151303 0.275161 0.507547
762 2 0.118115 0.357542 0.53844
291 1 0.0537179 0.33437 0.583183
263 1 0.446268 0.456091 0.548978
258 1 0.319839 0.103442 0.575527
758 2 0.444661 0.244564 0.546073
788 2 0.348658 0.365789 0.563775
269 1 0.604182 0.511957 0.532246
764 2 0.560781 0.349748 0.573166
290 1 0.723711 0.291234 0.592025
789 2 0.680928 0.426505 0.587745
268 1 0.538047 0.491231 0.58474
776 2 0.885075 0.344963 0.594821
256 1 0.978581 0.275499 0.541443
759 2 0.805125 0.228493 0.536625
765 2 0.965486 0.423255 0.550812
790 2 0.806692 0.442285 0.570598
292 1 0.203073 0.442652 0.559592
767 2 0.145527 0.607564 0.516198
293 1 0.25319 0.586443 0.545711
298 1 0.0295625 0.697352 0.543885
287 1 0.116254 0.571151 0.565365
817 2 0.243767 0.584846 0.590707
273 1 0.255613 0.79657 0.536873
768 2 0.540454 0.617416 0.564013
792 2 0.39578 0.520672 0.581455
769 2 0.651903 0.714654 0.545742
319 1 0.653144 0.672894 0.593668
294 1 0.711045 0.570841 0.560356
299 1 0.861912 0.638078 0.500886
766 2 0.100986 0.842191 0.543781
791 2 0.980008 0.53122 0.586909
297 1 0.82376 0.73366 0.553172
295 1 0.855474 0.534202 0.537035
794 2 0.850444 0.596919 0.573925
251 1 0.962054 0.975717 0.519358
793 2 0.143835 0.724949 0.573563
771 2 0.00164544 0.98711 0.559757
798 2 0.105834 0.853432 0.58697
822 2 0.208582 0.00681509 0.564236
253 1 0.393112 0.615758 0.534457
303 1 0.458196 0.741244 0.551068
752 2 0.309826 0.902047 0.516633
753 2 0.477328 0.200594 0.511133
322 1 0.31595 0.773956 0.574477
773 2 0.509364 0.739351 0.586835
779 2 0.610501 0.788251 0.514932
325 1 0.658196 0.828938 0.591561
271 1 0.925835 0.818096 0.570397
279 1 0.701209 0.868933 0.544263
775 2 0.846698 0.965378 0.54859
800 2 0.806726 0.929311 0.584443
277 1 0.0950194 0.00554784 0.596154
327 1 0.0766881 0.902576 0.637713
302 1 0.0219609 0.112696 0.61704
282 1 0.243802 0.0111835 0.602328
783 2 0.44953 0.0454739 0.594479
808 2 0.481843 0.165282 0.632638
289 1 0.632355 0.143404 0.599134
304 1 0.482875 0.0207196 0.635511
804 2 0.738975 0.233272 0.625168
824 2 0.602065 0.986765 0.6084
849 2 0.650504 0.0941819 0.638246
280 1 0.762612 0.0473612 0.609852
784 2 0.872967 0.135291 0.623822
321 1 0.964468 0.202638 0.588306
326 1 0.910654 0.962434 0.627638
276 1 0.155083 0.140407 0.593733
331 1 0.0964876 0.420004 0.653193
312 1 0.249351 0.455753 0.661499
286 1 0.142345 0.47817 0.601161
782 2 0.299464 0.433706 0.605191
307 1 0.323497 0.146264 0.613146
317 1 0.422603 0.456088 0.633929
333 1 0.405258 0.229157 0.585122
833 2 0.398855 0.30548 0.642642
339 1 0.539754 0.342888 0.648942
809 2 0.532851 0.273347 0.611809
787 2 0.442152 0.375275 0.599367
314 1 0.612622 0.215143 0.560132
785 2 0.805806 0.380945 0.628214
306 1 0.674535 0.408381 0.648972
781 2 0.0944959 0.301184 0.620228
315 1 0.783362 0.571972 0.659297
810 2 0.946926 0.284186 0.639189
311 1 0.9804 0.413292 0.616769
840 2 0.866068 0.415294 0.662105
316 1 0.357268 0.608868 0.64594
342 1 0.150043 0.709601 0.616705
347 1 0.188435 0.569037 0.632844
323 1 0.383481 0.654958 0.60364
818 2 0.286178 0.745441 0.614319
338 1 0.522265 0.604569 0.614981
318 1 0.379681 0.591974 0.684754
343 1 0.47806 0.710774 0.663002
313 1 0.737974 0.506315 0.619751
813 2 0.672293 0.611849 0.637893
366 1 0.750216 0.77889 0.627324
814 2 0.860906 0.713236 0.600268
320 1 0.874784 0.561991 0.616578
816 2 0.936857 0.590197 0.658108
797 2 0.0233236 0.577936 0.62309
777 2 0.207009 0.882522 0.622495
821 2 0.977564 0.82598 0.608081
346 1 0.974332 0.832736 0.662699
328 1 0.140984 0.786979 0.651893
819 2 0.439166 0.867958 0.629041
823 2 0.484733 0.902204 0.583563
348 1 0.337789 0.905511 0.599894
329 1 0.323813 0.979016 0.639335
324 1 0.56399 0.74285 0.62458
349 1 0.768449 0.914672 0.626634
795 2 0.0195853 0.681287 0.584543
820 2 0.803726 0.860396 0.662989
802 2 0.92169 0.117607 0.678196
332 1 0.0465188 0.0352794 0.661782
851 2 0.0624134 0.184034 0.694393
352 1 0.149548 0.9972 0.719964
803 2 0.160848 0.0459597 0.635454
334 1 0.543521 0.0425061 0.668877
335 1 0.352044 0.143763 0.656108
829 2 0.163946 0.15377 0.660309
364 1 0.22283 0.31249 0.672739
850 2 0.694916 0.955253 0.673083
356 1 0.812124 0.203434 0.717166
355 1 0.625796 0.0065248 0.706234
330 1 0.649752 0.250208 0.658848
301 1 0.659546 0.113911 0.678668
357 1 0.923026 0.279788 0.67912
846 2 0.905225 0.960086 0.678593
376 1 0.789733 0.0415593 0.695897
786 2 0.200692 0.471235 0.705557
806 2 0.0255595 0.453455 0.684716
832 2 0.231118 0.265728 0.633036
807 2 0.390813 0.427898 0.675418
359 1 0.423933 0.463791 0.712472
353 1 0.357939 0.290339 0.689796
340 1 0.748112 0.41229 0.686859
834 2 0.57234 0.448281 0.620232
835 2 0.484487 0.20957 0.67109
365 1 0.542375 0.424892 0.688375
360 1 0.699401 0.284342 0.702127
826 2 0.799089 0.247656 0.661317
801 2 0.0649347 0.303804 0.673669
811 2 0.870621 0.519808 0.692727
361 1 0.728886 0.490155 0.718825
812 2 0.203499 0.60939 0.69319
862 2 0.272679 0.715022 0.660789
341 1 0.09841 0.639333 0.658568
861 2 0.0368277 0.520529 0.71964
837 2 0.496442 0.563055 0.657411
838 2 0.294805 0.724053 0.70102
844 2 0.57796 0.561698 0.717148
368 1 0.295206 0.595762 0.725248
839 2 0.636549 0.537371 0.678338
344 1 0.732925 0.633897 0.696665
370 1 0.61428 0.450193 0.743912
815 2 0.981565 0.716053 0.638901
336 1 0.689893 0.6375 0.733844
362 1 0.961025 0.668723 0.696071
860 2 0.844859 0.712138 0.662806
865 2 0.947362 0.832552 0.708464
836 2 0.110119 0.769205 0.69023
847 2 0.213322 0.872719 0.699193
372 1 0.197949 0.964645 0.668336
841 2 0.0635939 0.926639 0.690216
842 2 0.354176 0.839022 0.659496
843 2 0.449098 0.820058 0.698713
827 2 0.397934 0.968873 0.679454
374 1 0.527016 0.891752 0.66797
873 2 0.49691 0.945017 0.717333
345 1 0.565257 0.662793 0.690385
350 1 0.630123 0.914058 0.64287
845 2 0.656638 0.757158 0.660747
375 1 0.651367 0.868461 0.700261
874 2 0.541476 0.715005 0.72812
305 1 0.804174 0.059499 0.650221
825 2 0.805911 0.793088 0.695134
875 2 0.729488 0.923953 0.733065
852 2 0.105033 0.201284 0.735001
377 1 0.230068 0.0949173 0.737621
358 1 0.24991 0.187386 0.701562
354 1 0.447175 0.136698 0.703039
882 2 0.389503 0.227662 0.728389
855 2 0.736172 0.0712141 0.73092
380 1 0.505484 0.969517 0.770889
853 2 0.654092 0.0858492 0.76348
909 2 0.509548 0.0956426 0.740581
830 2 0.920711 0.0934965 0.751815
871 2 0.987444 0.0752118 0.708239
876 2 0.95403 0.206608 0.72849
881 2 0.255512 0.308393 0.721152
381 1 0.196122 0.348529 0.757732
363 1 0.0737548 0.507683 0.786573
805 2 0.0642733 0.367028 0.721857
858 2 0.0137026 0.582849 0.75724
389 1 0.475127 0.422614 0.755626
863 2 0.319603 0.42845 0.74438
864 2 0.534929 0.349073 0.721526
857 2 0.354492 0.341761 0.775837
854 2 0.290397 0.203941 0.759681
385 1 0.80057 0.187254 0.759312
859 2 0.614665 0.168524 0.721851
390 1 0.700853 0.286623 0.744591
351 1 0.874712 0.381952 0.70996
384 1 0.867743 0.33854 0.747634
831 2 0.164411 0.489265 0.746033
387 1 0.0176017 0.717091 0.735872
828 2 0.443207 0.589462 0.737708
369 1 0.341053 0.559731 0.773369
848 2 0.158747 0.683815 0.728825
898 2 0.424786 0.693769 0.78051
889 2 0.755623 0.431973 0.774018
337 1 0.717752 0.775386 0.730114
868 2 0.590213 0.747672 0.768659
391 1 0.694018 0.617264 0.773911
386 1 0.885778 0.558762 0.73149
890 2 0.895637 0.514096 0.778901
895 2 0.857588 0.681708 0.774708
886 2 0.0942933 0.848941 0.730124
867 2 0.228178 0.815619 0.754576
872 2 0.29465 0.0303343 0.702561
367 1 0.0346603 0.965894 0.745215
397 1 0.178204 0.963788 0.759177
373 1 0.34701 0.710035 0.746437
379 1 0.456182 0.833744 0.745053
423 1 0.338931 0.937898 0.732143
430 1 0.338469 0.862662 0.773195
869 2 0.610237 0.877194 0.752109
396 1 0.715227 0.802131 0.783734
425 1 0.678468 0.940803 0.788851
879 2 0.823923 0.94393 0.771982
870 2 0.865399 0.710761 0.727752
371 1 0.880986 0.972411 0.728647
422 1 0.830822 0.813753 0.753584
900 2 0.0949592 0.0973372 0.765549
880 2 0.0195473 0.164406 0.827141
407 1 0.160914 0.206802 0.787709
877 2 0.144638 0.0656514 0.799053
382 1 0.323782 0.0429288 0.768632
883 2 0.463285 0.147275 0.823436
413 1 0.29222 0.135653 0.796852
378 1 0.403675 0.98119 0.797831
878 2 0.28105 0.020928 0.830807
924 2 0.599513 0.174788 0.804313
388 1 0.492304 0.126251 0.779871
904 2 0.752502 0.226803 0.823186
949 2 0.563889 0.00980287 0.810759
405 1 0.944971 0.164919 0.790205
920 2 0.731343 0.0888366 0.798584
401 1 0.884267 0.0956552 0.820162
411 1 0.123097 0.357441 0.796582
416 1 0.0458424 0.389975 0.758257
393 1 0.239925 0.477217 0.799888
934 2 0.394417 0.271717 0.84277
412 1 0.273006 0.314206 0.809943
892 2 0.490494 0.315092 0.802635
443 1 0.372436 0.421634 0.823936
414 1 0.520773 0.2669 0.754441
410 1 0.698436 0.254251 0.785898
440 1 0.532072 0.372413 0.864898
887 2 0.453634 0.48488 0.795471
964 2 0.601477 0.34064 0.829193
435 1 0.0163188 0.235693 0.764605
856 2 0.816003 0.618523 0.805687
884 2 0.597084 0.422055 0.782863
915 2 0.870681 0.485638 0.854668
930 2 0.844108 0.281082 0.78962
885 2 0.0145302 0.636355 0.792318
406 1 0.963474 0.376153 0.789161
891 2 0.165681 0.650837 0.763687
473 1 0.984793 0.787473 0.767334
392 1 0.0580088 0.629134 0.830995
910 2 0.041083 0.761155 0.817888
400 1 0.547228 0.602577 0.776583
866 2 0.203359 0.617912 0.798785
893 2 0.391695 0.617982 0.813367
449 1 0.303616 0.786972 0.805551
919 2 0.527385 0.705578 0.813487
394 1 0.659188 0.545719 0.813205
415 1 0.692095 0.696346 0.817568
395 1 0.762671 0.578263 0.842799
911 2 0.864976 0.748364 0.848437
383 1 0.241702 0.935127 0.798131
922 2 0.0162034 0.996248 0.817936
398 1 0.0830544 0.904491 0.79237
897 2 0.144994 0.907819 0.839563
424 1 0.143556 0.764051 0.788606
403 1 0.303662 0.837412 0.846651
404 1 0.472424 0.823549 0.782307
923 2 0.450496 0.851071 0.819971
399 1 0.610598 0.821474 0.807421
899 2 0.787158 0.887716 0.821012
444 1 0.725888 0.963601 0.852421
428 1 -0.0012819 0.860616 0.846178
420 1 0.907681 0.814832 0.803013
896 2 0.961192 0.994837 0.782952
450 1 0.671742 0.0936236 0.838476
402 1 0.90931 0.150035 0.85362
426 1 0.0902624 0.296735 0.833233
908 2 0.0831228 0.162288 0.876633
409 1 0.352465 0.120893 0.848578
427 1 0.233321 0.19817 0.875712
434 1 0.435411 0.983881 0.838852
453 1 0.152269 0.0536306 0.898716
901 2 0.132534 0.344228 0.886162
429 1 0.696929 0.311209 0.856064
446 1 0.348635 0.0130443 0.885367
941 2 0.540348 0.214546 0.853769
975 2 0.830253 0.156683 0.91003
417 1 0.902822 0.263356 0.823392
931 2 0.769801 0.163369 0.869504
950 2 0.792054 0.997656 0.885935
937 2 0.164014 0.18021 0.837674
441 1 0.236504 0.497295 0.870777
408 1 0.134611 0.479613 0.829431
438 1 0.326248 0.271369 0.899574
418 1 0.243144 0.356572 0.850144
894 2 0.379583 0.575653 0.873057
913 2 0.389714 0.392471 0.870144
888 2 0.640184 0.205266 0.888308
460 1 0.841459 0.314826 0.861442
912 2 0.988895 0.402651 0.843045
436 1 0.0815247 0.491157 0.873655
935 2 0.768433 0.375535 0.817705
469 1 0.75161 0.434615 0.876726
499 1 0.112556 0.765757 0.865246
497 1 0.175336 0.634783 0.864206
940 2 0.295897 0.54222 0.837857
917 2 0.199136 0.727453 0.829364
942 2 0.307346 0.691199 0.850086
939 2 0.49968 0.520194 0.839262
938 2 0.490236 0.700315 0.879425
445 1 0.658128 0.458774 0.84662
458 1 0.587917 0.532057 0.879317
965 2 0.730694 0.576783 0.90595
944 2 0.960024 0.515929 0.812563
946 2 0.694006 0.700458 0.888234
472 1 0.695315 0.7962 0.850216
431 1 0.145508 0.0518617 0.849255
926 2 0.167941 0.837931 0.927227
902 2 0.201677 0.710641 0.901539
452 1 0.97586 0.709637 0.886341
948 2 0.242904 0.905414 0.876425
914 2 0.606013 0.646986 0.855556
925 2 0.449118 0.879647 0.878143
943 2 0.450121 0.716109 0.84341
471 1 0.565296 0.76035 0.913746
995 2 0.545114 0.0324041 0.873894
921 2 0.0608782 0.848216 0.895289
421 1 0.866673 0.952583 0.85028
916 2 0.986482 0.0132431 0.862191
447 1 0.974372 0.294826 0.879539
457 1 0.0302628 0.140052 0.928881
907 2 0.201994 0.209819 0.944292
996 2 0.111763 0.997379 0.93792
903 2 0.414077 1.00187 0.930194
433 1 0.308003 0.115414 0.915441
984 2 0.51459 0.28276 0.898859
496 1 0.526807 0.217727 0.932676
974 2 0.520036 0.0896993 0.908182
928 2 0.418034 0.151969 0.884645